LAMMPS data file via write_data, version 29 Sep 2021, timestep = 10211

21305 atoms
5 atom types
2251 bonds
5 bond types
4500 angles
9 angle types
6741 dihedrals
13 dihedral types

-500 500 xlo xhi
-500 500 ylo yhi
-500 500 zlo zhi

Masses

1 12.01115
2 1.00797
3 12.01115
4 32.064
5 196.967

Atoms # full

5150 3 5 0 94.88287867082356 199.84728417588198 -132.03633901413883 0 0 0
4778 3 5 0 87.01418467403583 202.91308938379365 -132.02613984062162 0 0 0
4820 3 5 0 86.95661516152298 206.21874175859278 -132.10598579975087 0 0 0
4826 3 5 0 89.7505685679433 204.56412979507206 -133.04542209474047 0 0 0
4823 3 5 0 92.36243365703251 206.2397975827037 -133.94111223509785 0 0 0
5152 3 5 0 94.93238889767558 203.12244254856307 -132.01350670841222 0 0 0
5155 3 5 0 97.5177152409691 201.54133148356175 -132.99052301809746 0 0 0
5156 3 5 0 97.6310809702154 204.6954427609821 -133.03650656106868 0 0 0
5618 3 5 0 102.83645528888 203.19160491414516 -132.26493078659718 0 0 0
5578 3 5 0 100.29563673137294 201.48967998157687 -131.2332701090335 0 0 0
4506 3 5 0 86.94329302052486 209.5106753850721 -132.18501240138863 0 0 0
4824 3 5 0 92.33406048206052 209.4697786720085 -133.96387704319 0 0 0
4515 3 5 0 89.61741495267076 211.12742848872327 -133.01107770450724 0 0 0
4825 3 5 0 89.53370530039739 207.82416155575567 -133.1268830458462 0 0 0
4827 3 5 0 95.06386753783548 207.83067323778192 -134.85244691203678 0 0 0
4861 3 5 0 94.93248466305995 211.10387938847072 -134.89025894453624 0 0 0
4857 3 5 0 94.89968354655163 209.46594513205432 -132.04140418360763 0 0 0
4860 3 5 0 97.53071715718015 211.0859785203111 -133.0913447715298 0 0 0
5203 3 5 0 94.97794545383654 206.28631253285707 -131.95769448432023 0 0 0
5215 3 5 0 97.61840343726094 207.95594808958322 -133.02582087929176 0 0 0
5213 3 5 0 100.292973687057 206.26206631920792 -134.02849486900345 0 0 0
5214 3 5 0 100.24311070004089 209.49941425941097 -134.05221914725587 0 0 0
5210 3 5 0 102.9942112313979 206.3576553241996 -132.15417731727192 0 0 0
5298 3 5 0 102.79031788332988 209.55644323673675 -132.16373017598124 0 0 0
4507 3 5 0 86.99211101330481 212.73415220858823 -132.251446922977 0 0 0
4555 3 5 0 86.98045583793342 215.9990071940949 -132.1130981747678 0 0 0
4558 3 5 0 92.23367685004743 212.75967221705866 -134.07248140659212 0 0 0
4559 3 5 0 92.32302394842043 216.059581969371 -134.03219718092632 0 0 0
4560 3 5 0 89.66287112855878 214.42137668079897 -133.08377396078086 0 0 0
4561 3 5 0 89.76187444263127 217.7275662065964 -132.99574110155896 0 0 0
4562 3 5 0 94.89152836814034 214.39210868878416 -135.00926405477185 0 0 0
4630 3 5 0 97.55032333126536 217.69460123592165 -133.02635254577388 0 0 0
4858 3 5 0 94.9329757512307 212.8129968357775 -132.09140566041933 0 0 0
4908 3 5 0 94.91904568015374 216.02127971203603 -132.201486157489 0 0 0
4920 3 5 0 97.5354020617449 214.35470782139748 -133.0089277660151 0 0 0
4918 3 5 0 100.03347125833363 212.7985193202964 -134.09917016773326 0 0 0
4919 3 5 0 100.28244377226245 216.00337179981085 -134.01188553141972 0 0 0
4915 3 5 0 102.9410331660849 216.12530025658216 -132.1733102425308 0 0 0
5299 3 5 0 102.76585855957303 212.87836940457018 -132.18400372768158 0 0 0
4397 3 5 0 87.04286459299527 219.25970598680072 -132.0762317841099 0 0 0
4625 3 5 0 94.93707540026463 219.41528592364406 -132.15616021181074 0 0 0
4627 3 5 0 94.92717730756321 222.58236044468245 -132.29121429430907 0 0 0
4629 3 5 0 97.65354980173028 220.91211277571324 -133.17851816510358 0 0 0
4960 3 5 0 102.77751416674307 219.34139093335023 -132.3490667742814 0 0 0
5835 3 5 0 94.76818608121935 193.49227994292787 -126.53425338889586 0 0 0
5086 3 5 0 86.91267379261106 198.1642987648214 -129.30342211476565 0 0 0
5087 3 5 0 84.26810716931551 199.79917938391466 -128.34876910964508 0 0 0
5079 3 5 0 84.20601665752507 198.16324222886198 -125.62382381532227 0 0 0
5082 3 5 0 86.88147382355696 196.71400650993763 -126.39509109073187 0 0 0
5085 3 5 0 87.00882319897934 199.90200539296742 -126.40125584531548 0 0 0
5088 3 5 0 92.2393407537019 198.12874882912334 -131.10474290790398 0 0 0
5081 3 5 0 89.57000077262846 198.26760441611475 -127.4132959278306 0 0 0
5533 3 5 0 92.16119537697858 196.54874323719497 -128.29659773906226 0 0 0
5535 3 5 0 89.38860820632222 194.96033530298985 -127.41891894873797 0 0 0
5083 3 5 0 89.53784172059449 199.77703429340832 -130.2529190071917 0 0 0
5531 3 5 0 92.18043633296338 194.94536372059306 -125.47378487710172 0 0 0
5573 3 5 0 92.2582704081303 198.225246142155 -125.5175826077119 0 0 0
5137 3 5 0 92.26565943563631 199.84341692358268 -128.33619075718906 0 0 0
5574 3 5 0 97.53358841172417 198.41578355191223 -127.373469689089 0 0 0
5577 3 5 0 94.94756274731898 198.18307943411958 -129.2521233146849 0 0 0
5898 3 5 0 97.40174397798079 195.09394814885846 -127.50188609824457 0 0 0
5568 3 5 0 94.84075226859225 196.66986423167538 -126.41541720639654 0 0 0
5571 3 5 0 94.84786684996241 199.93104173205916 -126.39318487388634 0 0 0
5576 3 5 0 97.57001656031754 199.82473509299294 -130.29065076125713 0 0 0
5897 3 5 0 100.10531467838886 196.76902616654226 -128.370876663527 0 0 0
5894 3 5 0 102.76192808437703 196.72453427097514 -126.56789420407928 0 0 0
5899 3 5 0 102.81756979899752 198.4150702681969 -129.4057822442545 0 0 0
5949 3 5 0 105.42968020665903 198.42708856146615 -127.40608447434781 0 0 0
5895 3 5 0 100.10586545283739 195.05773212322342 -125.69623614338391 0 0 0
5896 3 5 0 100.20299545412654 198.33026315211222 -125.55833219291522 0 0 0
5610 3 5 0 100.18142659576262 199.97442765354072 -128.24951831435456 0 0 0
5948 3 5 0 108.15863174512806 198.3681178618545 -125.57094662792291 0 0 0
4777 3 5 0 79.01414889754565 202.9270140881505 -126.4639798538327 0 0 0
4774 3 5 0 81.61453925734098 204.59770659773955 -127.51523551909658 0 0 0
4776 3 5 0 81.69952757596124 201.33544476743145 -127.42346545574392 0 0 0
4779 3 5 0 84.31899838958522 204.6026676702739 -131.19693526833458 0 0 0
4780 3 5 0 84.3273533527284 203.08033847665283 -128.3282091413522 0 0 0
4819 3 5 0 86.99371942867712 204.6935191788934 -129.20891714988642 0 0 0
5084 3 5 0 86.9172618134494 201.42213091654617 -129.2171757086518 0 0 0
4811 3 5 0 84.34705888443189 204.66456260161152 -125.58909445201421 0 0 0
5077 3 5 0 84.36914979630251 201.45308463810832 -125.53335323433747 0 0 0
5147 3 5 0 87.03230247944026 203.11171281029203 -126.43193900694595 0 0 0
5154 3 5 0 92.19196870957548 201.446639863828 -131.1078312975947 0 0 0
5140 3 5 0 92.23903010804933 203.1003528854354 -128.3241440777676 0 0 0
5142 3 5 0 89.60794865163798 204.69824487854936 -127.38047407987274 0 0 0
5145 3 5 0 89.666227865316 201.52525595122938 -127.3963472155154 0 0 0
5146 3 5 0 89.56086274642928 203.13795571512745 -130.13823118446948 0 0 0
5153 3 5 0 92.27906351353873 204.713747085867 -131.11646940991008 0 0 0
5135 3 5 0 92.25575695903956 201.46999294596995 -125.52267736405477 0 0 0
5139 3 5 0 92.27474795793053 204.69546793800862 -125.52451259346726 0 0 0
5148 3 5 0 97.5662846772458 203.13766189575205 -130.17189894477085 0 0 0
5149 3 5 0 94.88028729835055 201.49574566650242 -129.22421389948394 0 0 0
5151 3 5 0 94.92861075796914 204.71780439533848 -129.20237128204596 0 0 0
5205 3 5 0 97.5957612165525 204.7561996331195 -127.30413339396125 0 0 0
5575 3 5 0 97.53783114029282 201.54357383810216 -127.35267405142524 0 0 0
5134 3 5 0 94.97209693932832 203.12338102425394 -126.42638130997106 0 0 0
5947 3 5 0 102.81316889383895 200.00918967050194 -126.34496746564339 0 0 0
5211 3 5 0 100.26792971270685 204.69853478491282 -131.18849824013733 0 0 0
5614 3 5 0 100.19962934846667 203.1681689432589 -128.29205579989164 0 0 0
5615 3 5 0 105.39301100201688 203.14230914799185 -130.2833188146541 0 0 0
5616 3 5 0 102.78272170761552 201.57752255744822 -129.17412291057045 0 0 0
5617 3 5 0 102.82992472726454 204.78782727153884 -129.30609659428313 0 0 0
5672 3 5 0 105.43428791238314 204.80347355371873 -127.38412385008165 0 0 0
5950 3 5 0 105.39179461903116 201.68578328548875 -127.44607318916292 0 0 0
5612 3 5 0 100.17604076918614 201.57812895021695 -125.46135549464704 0 0 0
5613 3 5 0 100.13439461319946 204.79793131051258 -125.51296712785793 0 0 0
5611 3 5 0 102.80808712266732 203.24524357817165 -126.44993173697637 0 0 0
6028 3 5 0 110.79227899403696 203.16887652343996 -126.47390886564254 0 0 0
6032 3 5 0 108.05347181896963 203.15022521449166 -128.41193011283931 0 0 0
6029 3 5 0 108.00091024813086 201.60194905062423 -125.63344698470932 0 0 0
6031 3 5 0 108.06088107421817 204.75345796266038 -125.55760388185143 0 0 0
4475 3 5 0 79.06506991576288 206.31767305380606 -126.50069349878663 0 0 0
4503 3 5 0 79.08138392281504 209.5873241054136 -126.48816232016259 0 0 0
4473 3 5 0 76.3382301515139 207.93761882651182 -125.5275678003647 0 0 0
4498 3 5 0 76.41979714353012 211.1579153584287 -125.4680082165587 0 0 0
4476 3 5 0 81.56410174952933 206.36675258728516 -130.1788974928899 0 0 0
4500 3 5 0 81.71429990345743 211.23381487448663 -127.41254228467 0 0 0
4508 3 5 0 84.30236146137233 211.10264365208423 -131.05980863844408 0 0 0
4509 3 5 0 84.37687806335761 209.5111449276677 -128.28323023167485 0 0 0
4511 3 5 0 84.3435201534264 207.87123616103736 -131.16718641970502 0 0 0
4512 3 5 0 81.56956897680114 209.47411202116953 -130.17385309117464 0 0 0
4806 3 5 0 81.75251198278733 207.9450913377417 -127.38868264058218 0 0 0
4821 3 5 0 84.28045718136103 206.35248730277402 -128.33989778510593 0 0 0
4505 3 5 0 87.02449020686191 211.1105533936513 -129.33161283406832 0 0 0
4816 3 5 0 87.03858382042716 207.91261075776885 -129.28937550733892 0 0 0
4818 3 5 0 87.0356265651644 209.61481283342806 -126.44148163801098 0 0 0
4499 3 5 0 84.36284440054015 211.1510066247344 -125.60447238244086 0 0 0
4808 3 5 0 84.37570719299904 208.00576918705764 -125.55779087057596 0 0 0
4817 3 5 0 87.01393360031808 206.37558621102923 -126.51019377347549 0 0 0
4822 3 5 0 92.2581620902726 207.91788100626937 -131.09847790720588 0 0 0
4813 3 5 0 89.59259494808482 208.02384309613004 -127.35274303868574 0 0 0
4814 3 5 0 89.60835918581337 206.31520896888523 -130.18711016913088 0 0 0
4815 3 5 0 89.60543593969699 209.56386045784282 -130.2885075034623 0 0 0
4851 3 5 0 92.26876371108487 209.54660348536308 -128.36916851430536 0 0 0
4853 3 5 0 89.64226706723476 211.264780674643 -127.45448533323773 0 0 0
4859 3 5 0 92.33212486924542 211.20761707237233 -131.17250925488287 0 0 0
5141 3 5 0 92.24502478943947 206.31981902435547 -128.30498188097502 0 0 0
4850 3 5 0 92.30006220455967 211.3008987464767 -125.52482658300326 0 0 0
5200 3 5 0 92.28869753528468 207.98983073347205 -125.6177665143852 0 0 0
4856 3 5 0 94.98298541488965 211.11608642815975 -129.30329257609662 0 0 0
5206 3 5 0 97.48998088973298 207.9668416370593 -127.37082380180614 0 0 0
5207 3 5 0 97.58601759167838 206.38856595553972 -130.13238596255897 0 0 0
5208 3 5 0 97.53744290849835 209.55544879762215 -130.20662089902262 0 0 0
5209 3 5 0 94.9261198162658 207.86729998458543 -129.2241132650278 0 0 0
5291 3 5 0 97.57966087947415 211.20044459119842 -127.39160766333232 0 0 0
5198 3 5 0 94.87467833414655 206.30634285195202 -126.45253559641709 0 0 0
5199 3 5 0 94.87363279899833 209.58457043713415 -126.5755067348988 0 0 0
5204 3 5 0 100.13623614401178 206.34516818044125 -128.32602413771946 0 0 0
5212 3 5 0 100.18343922600631 207.8847857989066 -131.25432091817547 0 0 0
5289 3 5 0 100.22430522853473 209.54940724038624 -128.4287074228565 0 0 0
5300 3 5 0 100.15384811613131 211.1673024346244 -131.19494770447633 0 0 0
5292 3 5 0 105.49113997688593 211.23007880375047 -127.47299080195013 0 0 0
5293 3 5 0 105.48823064267093 209.57727740155116 -130.2127967432994 0 0 0
5294 3 5 0 102.76778471696306 207.97637608103344 -129.2745076502024 0 0 0
5297 3 5 0 102.83115560781668 211.22555390382198 -129.2399358029015 0 0 0
5674 3 5 0 105.44341172222047 207.98805405525664 -127.42495295969262 0 0 0
5675 3 5 0 105.51152367155653 206.36857522426916 -130.21098003568812 0 0 0
5285 3 5 0 100.07859918321769 207.97760188358765 -125.55204499392957 0 0 0
5288 3 5 0 100.17280252801011 211.16155662559876 -125.54099295419898 0 0 0
5284 3 5 0 102.77202397418874 209.58548350585676 -126.44186162078226 0 0 0
5669 3 5 0 102.73455220050205 206.4129510397475 -126.45101360059917 0 0 0
5671 3 5 0 108.07483366636967 206.37529990777776 -128.31189136677972 0 0 0
5673 3 5 0 108.1501402311299 209.56634649267505 -128.379580515017 0 0 0
5711 3 5 0 110.76231086243405 209.55477036415976 -126.60472299630126 0 0 0
6030 3 5 0 110.77064404564149 206.36560304164178 -126.56583001166415 0 0 0
5670 3 5 0 108.10043331107478 208.02616936837597 -125.49251617796196 0 0 0
5713 3 5 0 108.10309305205215 211.215080401931 -125.5925767065949 0 0 0
4382 3 5 0 78.9655157476604 216.14911977650195 -126.47475603874217 0 0 0
4504 3 5 0 79.04396265018362 212.85907701992215 -126.57337790066995 0 0 0
4380 3 5 0 76.3997807086899 214.3998250984952 -125.52572608957055 0 0 0
4398 3 5 0 84.41116771580745 217.68677526201384 -131.1647889350992 0 0 0
4383 3 5 0 81.72594223682538 216.0559037341035 -130.26776248052334 0 0 0
4393 3 5 0 81.75986533237129 217.73209367737252 -127.43682968716841 0 0 0
4510 3 5 0 84.36126803134124 212.80089271773477 -128.3587508439884 0 0 0
4513 3 5 0 84.35370298665953 214.34742628398965 -131.14134029608923 0 0 0
4514 3 5 0 81.53773846903151 212.67463730601403 -130.21033655347443 0 0 0
4541 3 5 0 81.71310667412673 214.48658023785393 -127.54263463350335 0 0 0
4556 3 5 0 84.39915989150582 215.99099384086165 -128.40182823655337 0 0 0
4551 3 5 0 87.05862417071012 214.37937243069632 -129.30612515478086 0 0 0
4552 3 5 0 87.0362163897867 212.81712152142973 -126.56033101289147 0 0 0
4554 3 5 0 87.1259079782935 217.6237666605633 -129.32602524055994 0 0 0
4543 3 5 0 84.39033079599562 214.468088713149 -125.5978606958273 0 0 0
4546 3 5 0 84.4289151411959 217.67939744036963 -125.60808522322027 0 0 0
4553 3 5 0 87.03483171538639 216.05308854259286 -126.57020552585121 0 0 0
4557 3 5 0 92.31284049404123 214.4263508520731 -131.22963871535902 0 0 0
4548 3 5 0 89.6790314113558 214.49645836446683 -127.44017586556461 0 0 0
4549 3 5 0 89.68193159409252 212.77470739613193 -130.2351139563164 0 0 0
4550 3 5 0 89.72285833440226 216.02038717091955 -130.24318777097844 0 0 0
4612 3 5 0 92.34811312512852 215.96520238424378 -128.43498072847584 0 0 0
4614 3 5 0 89.73371172396418 217.67271914482984 -127.49189937597336 0 0 0
4626 3 5 0 92.34412776043486 217.70956608839407 -131.13357627266603 0 0 0
4852 3 5 0 92.32313762851034 212.81299239309172 -128.37317774844286 0 0 0
4611 3 5 0 92.27480587802891 217.62303492716714 -125.59333151923524 0 0 0
4905 3 5 0 92.31387865581338 214.44795122676265 -125.5818482522897 0 0 0
4624 3 5 0 94.94931532989516 217.74193829891342 -129.3370729467321 0 0 0
4910 3 5 0 97.59035496514167 217.70294093688568 -127.48016573222566 0 0 0
4911 3 5 0 97.56420139111425 214.4478964299872 -127.45167451480309 0 0 0
4912 3 5 0 97.57691882093562 212.8230901719357 -130.2064437216321 0 0 0
4913 3 5 0 97.53729665539913 216.08643887750276 -130.231564885608 0 0 0
4914 3 5 0 95.01962834717943 214.426818632458 -129.40831930441993 0 0 0
4903 3 5 0 94.91756707476247 212.8326193941215 -126.55418576968398 0 0 0
4904 3 5 0 94.97099820942022 216.04683454575334 -126.6268439441511 0 0 0
4909 3 5 0 100.17681862219392 216.02829690999906 -128.3792768057698 0 0 0
4916 3 5 0 100.15574209106678 217.67914140564716 -131.2053867509242 0 0 0
4917 3 5 0 100.18902661185786 214.410393871152 -131.1981235636753 0 0 0
5290 3 5 0 100.1967633608804 212.80337050476749 -128.33601778083528 0 0 0
4959 3 5 0 102.82387269585371 217.6201399779388 -129.4255329911581 0 0 0
5295 3 5 0 105.45966666748465 212.79645898745284 -130.3227458161514 0 0 0
5296 3 5 0 102.83541395255928 214.42095432473937 -129.3297883623681 0 0 0
5355 3 5 0 105.44610907485323 217.66151833547016 -127.49925979274929 0 0 0
5356 3 5 0 105.44286866232396 214.45227866275286 -127.49048833467626 0 0 0
5357 3 5 0 105.57203525394495 215.99372677007017 -130.2937830816259 0 0 0
4955 3 5 0 100.24598011256451 217.69501716556607 -125.59344344037652 0 0 0
5287 3 5 0 100.19626957382675 214.3955110563891 -125.56936654475516 0 0 0
5286 3 5 0 102.82685980625126 212.84629168035218 -126.52116845457238 0 0 0
5351 3 5 0 102.78175094420834 216.08931837967808 -126.49061463288312 0 0 0
5353 3 5 0 108.09258337596938 212.74698251035818 -128.51146125313883 0 0 0
5354 3 5 0 108.10889295231235 215.9821108182972 -128.35169964036314 0 0 0
5434 3 5 0 110.83102936816474 216.03363132527733 -126.53871748992053 0 0 0
5712 3 5 0 110.72118752853665 212.85619973868322 -126.64724590188933 0 0 0
5352 3 5 0 108.06822918684254 214.4549083551762 -125.64111969910348 0 0 0
5438 3 5 0 108.1195688296067 217.64263247758072 -125.64683999141529 0 0 0
4396 3 5 0 79.03429662612129 219.29063104880763 -126.5401550864784 0 0 0
4399 3 5 0 84.38190281867799 219.26460575284284 -128.42880008106127 0 0 0
4395 3 5 0 81.67129043977957 220.94023597277118 -127.54709530271336 0 0 0
4429 3 5 0 84.32366452408725 222.54883466018035 -128.46602061234964 0 0 0
4425 3 5 0 86.98442218711733 220.90435421504506 -129.39034733862218 0 0 0
4428 3 5 0 86.98002393506782 224.30010233587996 -129.28837046496258 0 0 0
4621 3 5 0 87.01449863409644 219.25828741880312 -126.51708564420198 0 0 0
4418 3 5 0 84.32518773707919 220.89336273933338 -125.53560970665501 0 0 0
4421 3 5 0 84.22277514325735 224.12446294149208 -125.71484714959826 0 0 0
4426 3 5 0 86.94415426924812 222.41943728115464 -126.4849397876963 0 0 0
4628 3 5 0 92.2197898263665 220.93507484588034 -131.2827619331399 0 0 0
4430 3 5 0 92.18713858162506 224.2206095496381 -131.25567498536222 0 0 0
4613 3 5 0 92.28526621248035 219.36838851421274 -128.39430471598683 0 0 0
4620 3 5 0 89.66606631551844 219.3395592251806 -130.2033027184596 0 0 0
4423 3 5 0 89.55091332738128 224.18183890518912 -127.44156403587783 0 0 0
4424 3 5 0 89.61256618535205 222.52552698902753 -130.33579898468633 0 0 0
4617 3 5 0 92.2831559030788 222.51102794096784 -128.41519010748834 0 0 0
4619 3 5 0 89.6136950142583 220.95831192085825 -127.41434632540505 0 0 0
4609 3 5 0 92.23945347008683 220.88655092604185 -125.62409955708381 0 0 0
4668 3 5 0 92.27370432223749 224.107101136199 -125.59643591013817 0 0 0
4622 3 5 0 97.5997278871756 219.34250604506195 -130.27073293135732 0 0 0
4623 3 5 0 94.96032983013919 220.9449960087467 -129.36189602014892 0 0 0
4664 3 5 0 94.88821551088874 222.49364880560447 -126.55159920552617 0 0 0
4669 3 5 0 97.54785439234122 224.12102866220255 -127.45164185677483 0 0 0
4670 3 5 0 97.58563297203786 220.87960602063836 -127.46976338966756 0 0 0
4671 3 5 0 97.59541398459616 222.63418373635463 -130.30137477992773 0 0 0
4672 3 5 0 94.92489271851768 224.19992483937742 -129.35853644174477 0 0 0
4608 3 5 0 94.91356234432558 219.2997073798581 -126.46965144154316 0 0 0
4673 3 5 0 100.24501689570815 220.94714734534207 -131.19826209778805 0 0 0
4956 3 5 0 100.25031252484868 219.31176450782445 -128.36481533116842 0 0 0
4957 3 5 0 105.50759357045689 219.27072679220015 -130.4008479741672 0 0 0
4952 3 5 0 100.16389765909142 222.51756899425595 -128.32331839291243 0 0 0
4736 3 5 0 102.84514728857886 224.10924877824854 -129.38620259040593 0 0 0
4958 3 5 0 102.87144030785748 220.87928228547307 -129.3682603195511 0 0 0
5008 3 5 0 102.84676703291782 222.601037231498 -126.52936024780045 0 0 0
5010 3 5 0 105.52780987923981 224.06730220783157 -127.58913616224477 0 0 0
5011 3 5 0 105.45447195671372 220.86002839433397 -127.61128562088331 0 0 0
4953 3 5 0 102.83286899635982 219.31200161840576 -126.50956267689577 0 0 0
4733 3 5 0 100.23891278991985 224.15686986434864 -125.60374738696558 0 0 0
4954 3 5 0 100.24789332633343 220.8965830843342 -125.62827190319517 0 0 0
5436 3 5 0 110.81801389125503 219.28163378139791 -126.66881429707735 0 0 0
5439 3 5 0 108.139415950717 219.14088203661464 -128.5065629238388 0 0 0
5009 3 5 0 108.11331869816135 224.1857447055419 -125.78669455103896 0 0 0
5437 3 5 0 108.1453040996223 220.93261310806722 -125.70985048643426 0 0 0
4427 3 5 0 86.79122144072221 225.78081337182527 -126.39958566921021 0 0 0
4447 3 5 0 92.19743077488468 225.74569059049776 -128.40026739221145 0 0 0
4450 3 5 0 89.52030069539612 227.41262166521892 -127.35756621302066 0 0 0
4446 3 5 0 92.19504705609162 227.40687835981487 -125.63839029727015 0 0 0
4469 3 5 0 94.88299815512768 228.98676639459364 -126.70891280320213 0 0 0
4735 3 5 0 97.55564848188969 227.3577342483471 -127.52005130181989 0 0 0
4666 3 5 0 94.8444302021994 225.7337333831603 -126.54877045198072 0 0 0
4734 3 5 0 100.08926223964151 225.66262140240607 -128.62026114240217 0 0 0
4731 3 5 0 102.87491886413399 225.77226614039336 -126.60238732661985 0 0 0
4732 3 5 0 100.18329602984187 227.4740152810122 -125.65545649382246 0 0 0
5528 3 5 0 86.90744999121247 193.31538682693034 -120.9660415279638 0 0 0
5532 3 5 0 89.5401156929688 193.27662156090142 -124.69203263516623 0 0 0
5828 3 5 0 92.17148959138203 191.80134117669087 -120.0217226326157 0 0 0
5832 3 5 0 89.5847366093216 191.8208401510205 -121.7967377735096 0 0 0
5836 3 5 0 92.1907755402987 193.4684822056321 -122.7738363779682 0 0 0
5830 3 5 0 89.44650643533417 190.16851644945334 -119.0235265741573 0 0 0
5831 3 5 0 89.55792355713973 193.45560821818788 -118.9874341289124 0 0 0
5834 3 5 0 94.84468329929703 190.19986718863964 -120.95438053627461 0 0 0
5833 3 5 0 94.82728173525508 191.85247025606859 -123.69906002867727 0 0 0
5886 3 5 0 97.48983927486411 191.78864098014176 -121.91732639925623 0 0 0
5887 3 5 0 97.42042965002727 193.4565102649706 -124.72232716633239 0 0 0
5888 3 5 0 94.8817451959425 193.42273289057795 -120.95387784775897 0 0 0
6245 3 5 0 97.54331253901941 190.13770334153705 -118.98124973521651 0 0 0
5884 3 5 0 97.53164529854857 193.39709620481264 -119.00211658175878 0 0 0
5881 3 5 0 100.24164406676549 193.50007306702236 -122.69420826478962 0 0 0
6242 3 5 0 100.26524609843713 191.76435746250078 -119.98760271683012 0 0 0
6241 3 5 0 102.8404825181991 193.53368149362413 -120.84462811761965 0 0 0
6268 3 5 0 105.60941306924543 193.3545107591099 -119.08610608234724 0 0 0
5074 3 5 0 79.05524393580842 199.91792525139408 -120.88904287133406 0 0 0
5066 3 5 0 84.36187151068715 198.25132243325572 -119.91698799329467 0 0 0
5072 3 5 0 81.66795573603144 198.24119056418138 -121.86301744974797 0 0 0
5076 3 5 0 84.34602533584071 196.6579744043094 -122.75484139411185 0 0 0
5525 3 5 0 84.22833209029892 194.96316432865416 -120.10502034127224 0 0 0
5075 3 5 0 86.99865003449861 198.29443625777418 -123.58980568761866 0 0 0
5529 3 5 0 86.9251125597912 196.59066065139038 -120.91678087968712 0 0 0
5530 3 5 0 86.94680752235082 194.99545561647932 -123.70871129799914 0 0 0
5078 3 5 0 84.32761204770341 199.90651987544035 -122.73523192545844 0 0 0
5068 3 5 0 81.71300687676202 196.62805653816173 -119.04530595448496 0 0 0
5080 3 5 0 81.73835892171714 199.78909293431337 -124.58728692236964 0 0 0
5127 3 5 0 86.97802569796843 199.8927333899908 -120.82204026034354 0 0 0
5070 3 5 0 81.77029477197053 199.89387495450381 -119.01500586224145 0 0 0
5527 3 5 0 89.5862436850589 195.05833703156412 -121.87338156577862 0 0 0
5534 3 5 0 89.5402239376749 196.68238498023763 -124.59374461751801 0 0 0
5559 3 5 0 92.25932252727382 198.34290536119346 -119.99871098331428 0 0 0
5564 3 5 0 89.61708992501039 198.2944336568832 -121.79581419775128 0 0 0
5569 3 5 0 92.24514707648407 196.68389143863982 -122.74000536860056 0 0 0
5879 3 5 0 92.1939973140941 195.10432536598478 -119.97221986523638 0 0 0
5138 3 5 0 89.64509125341361 199.84419098996025 -124.61969540225492 0 0 0
5561 3 5 0 89.54515679933624 196.67657473218105 -119.02936239732348 0 0 0
5563 3 5 0 89.6430291361032 199.88621047638196 -119.05005770590253 0 0 0
5572 3 5 0 92.2050938678767 199.8897607990504 -122.77965339404426 0 0 0
5566 3 5 0 94.83467957764603 198.27227404306618 -123.68027786554732 0 0 0
5883 3 5 0 97.54807780280875 195.11099049653794 -121.75481316429297 0 0 0
5889 3 5 0 97.50697556978702 198.3277443010986 -121.77387672191014 0 0 0
5890 3 5 0 97.54631167809032 196.69067287495838 -124.63469880602075 0 0 0
5891 3 5 0 94.86807143110876 196.73363360662412 -120.84119566827516 0 0 0
5892 3 5 0 94.85036496937829 195.06724650942618 -123.68343756435029 0 0 0
5885 3 5 0 97.55298973409982 196.682318225887 -119.02804548542939 0 0 0
5565 3 5 0 97.5194907559198 199.87457027635497 -124.57945204988505 0 0 0
5941 3 5 0 97.5443843145515 200.00222738861925 -118.9833638581082 0 0 0
5567 3 5 0 94.87021080776337 199.94923432911622 -120.90750945898799 0 0 0
5880 3 5 0 100.16054897461918 195.1173646187568 -119.8833104908552 0 0 0
5882 3 5 0 100.15064879919751 196.71821313336844 -122.76175573436882 0 0 0
5936 3 5 0 100.14140300633854 198.29330986206372 -119.92137020971302 0 0 0
5893 3 5 0 102.81481841900931 195.25476462818483 -123.68711922877492 0 0 0
5934 3 5 0 102.79009687480702 196.73141345548265 -120.77222453669245 0 0 0
5942 3 5 0 105.40687107326863 198.3437096008735 -121.82105565602782 0 0 0
5943 3 5 0 105.41765456068373 196.79647237352805 -124.5996510733728 0 0 0
5945 3 5 0 102.80900950966185 198.3237571351487 -123.6213737557466 0 0 0
6275 3 5 0 105.55368566033555 195.05927396986118 -121.80585525830757 0 0 0
5935 3 5 0 102.80101751052707 199.99104178070002 -120.87403077030208 0 0 0
6269 3 5 0 105.44572129404271 196.60132857321906 -118.97807803446157 0 0 0
5940 3 5 0 100.19295034302053 199.89699367211372 -122.77828661050249 0 0 0
6007 3 5 0 105.42551385275056 199.91826411043616 -118.97460442644511 0 0 0
6273 3 5 0 108.17142619870565 195.13547683557357 -119.93349273763167 0 0 0
6274 3 5 0 108.20727914456086 196.7353534579621 -122.72427837841546 0 0 0
6319 3 5 0 107.98385858186349 198.35069193653143 -119.93977319716302 0 0 0
6318 3 5 0 110.70286038469287 199.82562636611988 -120.85310777492788 0 0 0
6020 3 5 0 108.03560744852443 199.953366522207 -122.74377412765965 0 0 0
6315 3 5 0 113.35371299405676 199.94498945125682 -118.90273628910936 0 0 0
4768 3 5 0 79.06559365543298 204.63790054078976 -123.69286220965996 0 0 0
4769 3 5 0 79.115570804441 203.07934315897816 -120.87677268734416 0 0 0
4770 3 5 0 76.45447084093819 204.5916547652759 -119.99143515052664 0 0 0
4771 3 5 0 79.08999433715034 201.33669825545934 -123.72067785333911 0 0 0
4772 3 5 0 76.45413643699104 201.42256966742426 -120.01029582828839 0 0 0
4773 3 5 0 76.45769266753729 203.05117940129554 -122.7452461373818 0 0 0
4775 3 5 0 81.71879128957268 203.0585038018668 -124.65905535919953 0 0 0
4803 3 5 0 81.73507791749562 204.80142645691072 -121.76107546048779 0 0 0
5069 3 5 0 81.69699017834445 201.44488066878546 -121.84778875788024 0 0 0
5117 3 5 0 84.35689134599292 204.84479593145704 -119.9468036469866 0 0 0
5122 3 5 0 84.3790361291365 201.55747426615022 -120.0007066383746 0 0 0
5133 3 5 0 84.30903369613877 203.1799661836716 -122.72363204478353 0 0 0
5129 3 5 0 86.94048840999014 204.7467010268661 -123.67050129407359 0 0 0
5130 3 5 0 86.98355515082987 203.1598809310617 -120.87304716166632 0 0 0
5132 3 5 0 86.98205776295765 201.5059807921249 -123.65764795660189 0 0 0
5124 3 5 0 81.70981898842354 203.133320770766 -119.02355829961067 0 0 0
5125 3 5 0 89.58297769750048 201.46950356440036 -121.81961432868795 0 0 0
5128 3 5 0 89.60517632391651 204.68621962651758 -121.79686382553517 0 0 0
5136 3 5 0 92.2499713273738 203.0675058876526 -122.73098048983026 0 0 0
5143 3 5 0 89.57979386586265 203.0911572689012 -124.61102378610398 0 0 0
5188 3 5 0 92.339434386745 204.83077992549036 -119.99148558350804 0 0 0
5562 3 5 0 92.31190444451268 201.58251232504645 -119.98391632371026 0 0 0
5126 3 5 0 89.62655339150432 203.15457452331066 -118.99788062347083 0 0 0
5195 3 5 0 94.90931739843604 204.81606536330693 -123.66834058785756 0 0 0
5570 3 5 0 94.966150510927 201.50284256110785 -123.65029104451854 0 0 0
5605 3 5 0 97.52386796041175 201.5177154237002 -121.76507709743723 0 0 0
5607 3 5 0 97.56546849426734 204.8123809390096 -121.81370648732954 0 0 0
5608 3 5 0 97.51182071379938 203.15009264093584 -124.51757958820403 0 0 0
5609 3 5 0 94.90142878950125 203.14034144592108 -120.92785520393433 0 0 0
5606 3 5 0 97.55891065347926 203.24967632685534 -119.01584601619012 0 0 0
5944 3 5 0 105.42144431983333 200.0111651636352 -124.60011118744173 0 0 0
5604 3 5 0 100.14955835513003 203.23069678705724 -122.72665180774334 0 0 0
5657 3 5 0 100.16641177334536 204.85028411047642 -119.93630376005495 0 0 0
5939 3 5 0 100.21194891330272 201.52572392615028 -119.96363537148889 0 0 0
5666 3 5 0 102.787343280291 204.87347851543728 -123.66965087114929 0 0 0
5946 3 5 0 102.76075683656185 201.60339421400593 -123.63915537686029 0 0 0
6015 3 5 0 102.7828085670969 203.20132568595062 -120.88416628433183 0 0 0
6022 3 5 0 105.4355032681549 201.55691947017587 -121.84995565700576 0 0 0
6024 3 5 0 105.38486934914384 204.79473125659044 -121.82670989323344 0 0 0
6025 3 5 0 105.41157369510879 203.15626268649999 -124.58661494705265 0 0 0
6008 3 5 0 105.46246689216083 203.2403811465645 -119.01062808605724 0 0 0
6017 3 5 0 110.81924992143948 203.1033637990535 -120.88117144082801 0 0 0
6018 3 5 0 108.08376181766548 204.80686434073897 -119.96710404225985 0 0 0
6019 3 5 0 108.08751510482986 201.5171080212382 -119.9651927522778 0 0 0
6021 3 5 0 108.08787866385849 203.2069327436112 -122.72030722427301 0 0 0
6026 3 5 0 110.72733533953196 204.7805491090394 -123.63536098269913 0 0 0
6027 3 5 0 110.61257051505605 201.55273934866588 -123.65984815038436 0 0 0
6084 3 5 0 113.42864472152779 204.8042861680455 -121.88110582861094 0 0 0
6320 3 5 0 113.39114139702458 201.4974029281078 -121.87549418567266 0 0 0
6348 3 5 0 113.42931228882011 203.18586224073675 -118.99058782721485 0 0 0
4472 3 5 0 73.74870095890772 206.25112782071233 -119.1379573700365 0 0 0
4485 3 5 0 73.8938631800625 209.52198915818798 -119.27883228244207 0 0 0
4474 3 5 0 76.46598539332784 206.3068490683137 -122.73843844136046 0 0 0
4489 3 5 0 79.08965862008473 211.22789180559332 -123.6598876845663 0 0 0
4491 3 5 0 79.08613824939582 209.577483678475 -120.90777904120365 0 0 0
4493 3 5 0 76.54513971999823 211.28387211616723 -119.8945027146964 0 0 0
4494 3 5 0 79.05104891726701 207.93714420965108 -123.68408045980462 0 0 0