LAMMPS data file via write_data, version 21 Jul 2020, timestep = 400000

11280 atoms
8 atom types
6048 bonds
8 bond types
7296 angles
12 angle types
10896 dihedrals
15 dihedral types
960 impropers
1 improper types

-105.08202430282267 220.8832318 xlo xhi
-2.0655224585957406 36.6854704654892 ylo yhi
-2.389599154555203 42.36527175677665 zlo zhi

Masses

1 12.0107
2 1.00794
3 32.064999
4 12.0107
5 1.00794
6 0.1
7 55.845
8 196.967

Bond Coeffs # harmonic

1 222 1.81
2 268 1.529
3 340 1.09
4 317 1.51
5 367 1.08
6 469 1.44
7 50 2.06
8 100 1.22494

Angle Coeffs # harmonic

1 58.35 112.7
2 37.5 110.7
3 50 108.6
4 33 107.8
5 35 109.5
6 63 114
7 35 109.5
8 70 126
9 63 108
10 35 126
11 63 126
12 63 180

Improper Coeffs # harmonic

1 5 180

Atoms # full

4408 49 8 -0.15 -3.788386329329533 2.277334180722783 2.4225023259126237 0 0 0
4426 49 8 -0.15 -3.7883868456475978 0.6627231637031967 -0.37468423043338506 0 0 0
4500 49 8 -0.15 -3.788384708140305 3.8919675959264133 -0.37467325455541217 0 0 0
4559 49 8 -0.15 -3.7883785302656716 -0.9519084654852081 2.422498301506046 0 0 0
4573 49 8 0.0 -1.1204872617453883 -0.9460488628252394 -1.2816030702531682 0 0 0
4643 49 8 0.0 -1.1546636180827112 0.6515417147083776 1.475060628133385 0 0 0
4715 49 8 0.0 -1.1542910423707982 3.8847142690570675 1.459196192091934 0 0 0
4731 49 8 0.0 -1.104157066048085 2.298329235370378 -1.348234232192443 0 0 0
4797 49 8 0.0 1.49709119503599 3.9088719884801444 3.3422580948007026 0 0 0
4837 49 8 0.0 1.487666883187031 2.2737025320501125 0.5578985758385406 0 0 0
4846 49 8 0.0 1.4555976659391436 -0.9553247495543987 0.5965073599850165 0 0 0
4852 49 8 0.0 1.5616168341880128 0.6875504669242949 -2.2151262913727283 0 0 0
4894 49 8 0.0 1.468607704131295 0.6203404970508747 3.317001358941048 0 0 0
4710 49 8 0.0 -1.1476021795680829 -0.9665539914210401 4.258684938148321 0 0 0
4751 49 8 0.0 -1.1278286609461659 2.319268684573576 4.180629653080968 0 0 0
4889 49 8 0.0 1.5094783832007386 3.9015967851987496 -2.3179709747780146 0 0 0
4405 49 8 -0.15 -3.7883871351553617 7.121212265240629 -0.3746762969021251 0 0 0
4462 49 8 -0.15 -3.7883860623107504 5.5065964706155635 2.4224947232380543 0 0 0
4474 49 8 -0.15 -3.7883897195413576 8.735843387020987 2.4225093064901184 0 0 0
4502 49 8 -0.15 -3.7883892873535054 10.35046153264328 -0.37467567906790994 0 0 0
4574 49 8 0.0 -1.0886794575744327 5.543969475775104 -1.3871375981138927 0 0 0
4619 49 8 0.0 -1.1051388625670735 7.1973875512496495 1.4516650074480588 0 0 0
4654 49 8 0.0 -1.0833701314883244 8.799675494786023 -1.3787066801291274 0 0 0
4727 49 8 0.0 -1.075555024046892 10.352082584487361 1.415334661026708 0 0 0
4841 49 8 0.0 1.5091382967179099 8.761146382524803 0.48935866936518857 0 0 0
4895 49 8 0.0 1.5320016000743832 10.328843000056379 3.3678433647059807 0 0 0
4908 49 8 0.0 1.5433112269373948 10.36645895423337 -2.272589559741401 0 0 0
4924 49 8 0.0 1.5031434450499808 5.531685886354889 0.4754057401752986 0 0 0
4925 49 8 0.0 1.519790652445572 7.103762623478478 -2.3101065557026557 0 0 0
4934 49 8 0.0 1.517768637911729 7.110127712143385 3.3271008161784597 0 0 0
4599 49 8 0.0 -1.1653022089509075 5.586144439753349 4.303863154748807 0 0 0
4669 49 8 0.0 -1.1113074552081768 8.830059487154465 4.245489236641064 0 0 0
4383 49 8 -0.15 -3.7883966593717444 11.965086699742464 2.422497838293539 0 0 0
4412 49 8 -0.15 -3.7883935198606182 16.80896786806462 -0.37468040749597326 0 0 0
4441 49 8 -0.15 -3.788393004338775 13.57971278261202 -0.37467838125968966 0 0 0
4536 49 8 -0.15 -3.7883837499266755 15.194334269325028 2.422501903811381 0 0 0
4578 49 8 0.0 -1.116849634621551 16.78746911345786 1.4938757808660057 0 0 0
4620 49 8 0.0 -1.1416547266359727 15.267493542353654 -1.3007593149034007 0 0 0
4683 49 8 0.0 -1.098522099353618 13.585057985489989 1.4852681267561336 0 0 0
4689 49 8 0.0 -1.1838950495307639 12.010553949881134 -1.3129797799505976 0 0 0
4763 49 8 0.0 1.5119128493913578 13.564398343224484 3.408939528171144 0 0 0
4806 49 8 0.0 1.5367627308383986 11.949819612038228 0.5136048145585664 0 0 0
4813 49 8 0.0 1.5766521282718025 15.227053522853803 0.5273904475149894 0 0 0
4855 49 8 0.0 1.564240427356019 16.827707235531044 -2.268181096453929 0 0 0
4890 49 8 0.0 1.4360521433202704 16.78957275808047 3.427001329894635 0 0 0
4935 49 8 0.0 1.4884607431632615 13.577557382552277 -2.207971996358838 0 0 0
4575 49 8 0.0 -1.1060847137806795 15.14566937682197 4.320835036410009 0 0 0
4600 49 8 0.0 -1.0961822471260958 11.966836215961935 4.271837004678398 0 0 0
4387 49 8 -0.15 -3.7883894256604416 18.423589064345386 2.4225070103012505 0 0 0
4488 49 8 -0.15 -3.788381654744282 23.267465367968367 -0.3746762495225456 0 0 0
4491 49 8 -0.15 -3.78838699144263 20.038214333729766 -0.3746827849548502 0 0 0
4547 49 8 -0.15 -3.7883756989843955 21.65283700099052 2.422500632167546 0 0 0
4655 49 8 0.0 -1.0953081875809239 21.70494829093029 -1.3040920816259503 0 0 0
4684 49 8 0.0 -1.1707693986369279 20.03622692547656 1.524532248740134 0 0 0
4705 49 8 0.0 -1.1142555228145763 18.442131627442986 -1.3091775815814426 0 0 0
4707 49 8 0.0 -1.141075923023845 23.256407542137683 1.4641773542678895 0 0 0
4754 49 8 0.0 1.4929468492631643 23.274794025285296 -2.2699681860925933 0 0 0
4779 49 8 0.0 1.4297155026386565 23.260485986247506 3.3110252962080313 0 0 0
4836 49 8 0.0 1.447834420448172 20.027479303007272 -2.20999421367807 0 0 0
4861 49 8 0.0 1.4993228540654266 18.36487578987945 0.5748979646662026 0 0 0
4910 49 8 0.0 1.5146963703865386 21.61335190734773 0.5507898890884886 0 0 0
4936 49 8 0.0 1.4982850005515336 20.051523427179077 3.365971105928681 0 0 0
4604 49 8 0.0 -1.1123768992175507 18.42101133262045 4.279429923214856 0 0 0
4741 49 8 0.0 -1.1178371929199735 21.654046429570236 4.321879731252023 0 0 0
4402 49 8 -0.15 -3.788381676486787 28.111341648613628 2.422501861991482 0 0 0
4445 49 8 -0.15 -3.7883822295047547 29.72595598898851 -0.37467829426693644 0 0 0
4489 49 8 -0.15 -3.7883764598123792 26.496711019674517 -0.3746828889479464 0 0 0
4552 49 8 -0.15 -3.788375846150684 24.882088958389282 2.4225016272232365 0 0 0
4592 49 8 0.0 -1.0784692042929798 29.768317226610677 1.455937391277088 0 0 0
4603 49 8 0.0 -1.119663002752991 26.46797466682911 1.4969568334063668 0 0 0
4615 49 8 0.0 -1.1085395426834508 24.8881198914318 -1.2660261450900145 0 0 0
4660 49 8 0.0 -1.0878259221088176 28.08179046666982 -1.3610223102606678 0 0 0
4767 49 8 0.0 1.5262402628265208 29.733173928058843 3.351796039509708 0 0 0
4803 49 8 0.0 1.5805703944726752 29.71400607773411 -2.2971702192529966 0 0 0
4863 49 8 0.0 1.5186739572050978 26.524304241642206 3.3435767726833343 0 0 0
4881 49 8 0.0 1.5458056245151577 26.501940116260023 -2.254139350512782 0 0 0
4911 49 8 0.0 1.5080710142346512 28.172994526860933 0.6001702208726248 0 0 0
4914 49 8 0.0 1.5079359698992914 24.882144293253646 0.5319317775530495 0 0 0
4594 49 8 0.0 -1.1221604499073377 28.168806401565668 4.278631289525229 0 0 0
4739 49 8 0.0 -1.183892169466316 24.85340606922705 4.246673821914597 0 0 0
4370 49 8 -0.15 -3.7883885861125988 34.56983484009322 2.422497337061113 0 0 0
4464 49 8 -0.15 -3.788385957583746 32.95520655409029 -0.37468019996056545 0 0 0
4518 49 8 -0.15 -3.7883866606378884 36.18446516231943 -0.3746787083201514 0 -1 0
4543 49 8 -0.15 -3.788379241913185 31.3405821994143 2.4224983427661897 0 0 0
4564 49 8 0.0 -1.110009002157615 31.259840180864405 -1.36828201637806 0 0 0
4565 49 8 0.0 -1.1088912717357562 32.922839024357295 1.4631689155556415 0 0 0
4617 49 8 0.0 -1.1160920305464646 34.57163365624911 -1.358813857936109 0 0 0
4663 49 8 0.0 -1.1215898275450227 36.21329399004805 1.5117012813400148 0 -1 0
4782 49 8 0.0 1.5083223815736881 34.572386810972404 0.5378893797829524 0 0 0
4816 49 8 0.0 1.46396471698187 33.00886023924168 -2.2575308631320685 0 0 0
4842 49 8 0.0 1.5020180657043818 32.927344903717746 3.3025675175662665 0 0 0
4854 49 8 0.0 1.475523373222271 36.18237658602387 3.3102097035334443 0 -1 0
4868 49 8 0.0 1.4700016185595133 36.2733262681638 -2.2987622703158768 0 -1 0
4875 49 8 0.0 1.512970819792277 31.386193511991046 0.5646079323506655 0 0 0
4628 49 8 0.0 -1.1241704829909442 31.38995329301862 4.265812735136609 0 0 0
4722 49 8 0.0 -1.170505354854435 34.602120926529864 4.268879723054756 0 0 0
4409 49 8 -0.15 -3.7883883411630053 -0.9519088182070832 8.016852020814838 0 0 0
4497 49 8 -0.15 -3.788382784743161 0.6627133092239829 5.219673294045663 0 0 0
4510 49 8 -0.15 -3.788386470282097 3.8919653458285315 5.219678325591681 0 0 0
4533 49 8 -0.15 -3.788383405622387 2.2773336687703165 8.016854831523368 0 0 0
4392 49 8 -0.15 -3.788383672426643 0.6627135294429563 10.814035519755345 0 0 0
4436 49 8 -0.15 -3.78838580761847 3.8919664270783687 10.814034420612066 0 0 0
4597 49 8 0.0 -1.1349601504273996 0.6400546552404556 7.055749586286104 0 0 0
4610 49 8 0.0 -1.1563449939599288 3.89147025050347 7.066956704106045 0 0 0
4612 49 8 0.0 -1.1620291743397326 2.2596317222985 9.86856100092461 0 0 0
4737 49 8 0.0 -1.1270951375270846 -0.9942450068179195 9.839565726282169 0 0 0
4769 49 8 0.0 1.5147975482930565 3.8829164251119668 8.9379447763546 0 0 0
4800 49 8 0.0 1.4722486581219594 0.612858274854537 8.930768777124872 0 0 0
4853 49 8 0.0 1.5267118664453916 2.1816228300860843 6.094771511437894 0 0 0
4880 49 8 0.0 1.4604602098845907 -1.0233418340487421 6.118425162837084 0 0 0
4834 49 8 0.0 1.4393375395795784 2.2946342834713107 11.774858410383464 0 0 0
4943 49 8 0.0 1.5145325367546056 -1.0083711463590896 11.7193573562395 0 0 0
4372 49 8 -0.15 -3.7883926715257235 7.121208976992023 5.219685956107244 0 0 0
4440 49 8 -0.15 -3.788394315798087 10.350467263253545 5.219682495295795 0 0 0
4527 49 8 -0.15 -3.7883826496371253 5.506588694999834 8.016861363168253 0 0 0
4555 49 8 -0.15 -3.7883822615271088 8.735845913656437 8.01686106857363 0 0 0
4439 49 8 -0.15 -3.78838801947228 10.350462252361643 10.814036590836965 0 0 0
4456 49 8 -0.15 -3.788382909879925 7.121209677787469 10.814036780373826 0 0 0
4627 49 8 0.0 -1.0966598005937551 7.09913082700315 7.100637028238282 0 0 0
4680 49 8 0.0 -1.1080730467448807 8.665514323559462 9.862326953872781 0 0 0
4698 49 8 0.0 -1.1324243681388917 5.451765448060982 9.931389094145414 0 0 0
4750 49 8 0.0 -1.067366664582541 10.284918688691539 7.040753552614595 0 0 0
4811 49 8 0.0 1.4571353790036308 5.445645209899806 6.169427430437378 0 0 0
4828 49 8 0.0 1.4779130040727857 7.078738015110774 8.910335647723084 0 0 0
4848 49 8 0.0 1.4895898630117355 10.300708556361613 8.967468323541512 0 0 0
4882 49 8 0.0 1.4547108355445024 8.742901133744452 6.10067402067531 0 0 0
4792 49 8 0.0 1.516167021006291 8.714596675889311 11.699550499864596 0 0 0
4929 49 8 0.0 1.5026928734989144 5.4983686996053445 11.737676748106882 0 0 0
4404 49 8 -0.15 -3.7883899709696536 11.965093888946816 8.016859020146212 0 0 0
4501 49 8 -0.15 -3.788385129711821 15.194347305420166 8.016863659777703 0 0 0
4523 49 8 -0.15 -3.7883851607040206 16.808965285612626 5.2196879820930775 0 0 0
4530 49 8 -0.15 -3.788387841304534 13.57971432293179 5.219687016734967 0 0 0
4495 49 8 -0.15 -3.788380340479891 16.80896884105967 10.81404055103234 0 0 0
4508 49 8 -0.15 -3.7883853448800604 13.579715266438669 10.81402862410743 0 0 0
4568 49 8 0.0 -1.0788428309434916 16.74170006958807 7.086367917625886 0 0 0
4650 49 8 0.0 -1.1194435733309498 11.897385960480879 9.890777488604366 0 0 0
4659 49 8 0.0 -1.1749721036034455 15.147438568113673 9.91807844653211 0 0 0
4702 49 8 0.0 -1.2169251352160335 13.56016548936576 7.153248692287751 0 0 0
4795 49 8 0.0 1.48670872072829 16.804034348970184 9.009358256930877 0 0 0
4839 49 8 0.0 1.5225150975036192 15.170558105798976 6.277855354144525 0 0 0
4874 49 8 0.0 1.4737725708658425 13.570290942870175 8.99939038540889 0 0 0
4905 49 8 0.0 1.495093893101623 11.93410180011436 6.189762705002169 0 0 0
4788 49 8 0.0 1.4880653774401005 11.954700247768107 11.724195906092126 0 0 0
4858 49 8 0.0 1.4675213337797801 15.20072828940925 11.778068832215297 0 0 0
4414 49 8 -0.15 -3.788382027924239 23.267465804723177 5.2196844983231845 0 0 0
4463 49 8 -0.15 -3.7883871679778798 20.03821809722971 5.219680921546749 0 0 0
4480 49 8 -0.15 -3.788382320815529 21.65283304019365 8.016864544499384 0 0 0
4558 49 8 -0.15 -3.7883823522874485 18.423592674659698 8.016862212085915 0 0 0
4498 49 8 -0.15 -3.7883818693882048 20.03821706543267 10.814042820087264 0 0 0
4524 49 8 -0.15 -3.7883774185376033 23.26746864066001 10.814038258938597 0 0 0
4596 49 8 0.0 -1.133947860335405 21.623898939033317 9.897074533724018 0 0 0
4602 49 8 0.0 -1.1485363329385792 18.367251327750907 9.917948391198554 0 0 0
4635 49 8 0.0 -1.210003328532318 23.270104853976385 7.012818514636756 0 0 0
4736 49 8 0.0 -1.102945586968942 19.981464906411954 7.0526797298191335 0 0 0
4765 49 8 0.0 1.507059066051581 21.6581145554618 6.117556398369369 0 0 0
4775 49 8 0.0 1.4892042686565072 18.39353175426379 6.1675706007543525 0 0 0
4784 49 8 0.0 1.431360100950985 23.228776740290527 8.900844709772805 0 0 0
4820 49 8 0.0 1.5025224507051826 20.039158441996474 8.986655763595248 0 0 0
4831 49 8 0.0 1.5215939302209742 18.44968036796312 11.785290270511908 0 0 0
4872 49 8 0.0 1.5571181141515884 21.66169391364394 11.778080546748146 0 0 0
4403 49 8 -0.15 -3.788377180292312 24.882090755728743 8.016859557085306 0 0 0
4421 49 8 -0.15 -3.78837586117508 29.7259583333359 5.2196813664744885 0 0 0
4423 49 8 -0.15 -3.7883782699864192 26.49671003282167 5.219673667248882 0 0 0
4494 49 8 -0.15 -3.788371122286039 28.111338122743728 8.016852037525034 0 0 0
4401 49 8 -0.15 -3.7883772268999234 26.496707940946653 10.814042266173047 0 0 0
4458 49 8 -0.15 -3.7883801002024233 29.725956866173036 10.81403588952743 0 0 0
4622 49 8 0.0 -1.109676553458757 28.144179529392467 9.902795223654694 0 0 0
4648 49 8 0.0 -1.134687232715365 26.540425415245416 7.048924552240495 0 0 0
4668 49 8 0.0 -1.1552135889281483 24.842955363129136 9.752019903359223 0 0 0
4740 49 8 0.0 -1.0923525198932005 29.756933278306466 7.099300900638709 0 0 0
4783 49 8 0.0 1.4949499982728909 28.15187482782062 6.165332872347759 0 0 0
4892 49 8 0.0 1.4683694637113185 24.901190996262393 6.14499696465116 0 0 0
4915 49 8 0.0 1.4769368836194767 26.461246900453343 8.909115848077944 0 0 0
4940 49 8 0.0 1.5233455907808116 29.692584585866353 8.942238372772835 0 0 0
4812 49 8 0.0 1.5426166244776276 24.887390756723004 11.691800427602482 0 0 0
4843 49 8 0.0 1.5322816185447081 28.162199886910265 11.712177794301999 0 0 0
4437 49 8 -0.15 -3.788382485324266 31.34057840994223 8.016861692777928 0 0 0
4450 49 8 -0.15 -3.788382253539855 36.184452620590676 5.219679739118366 0 -1 0
4469 49 8 -0.15 -3.788377854011425 32.95520477207227 5.2196778691785495 0 0 0
4479 49 8 -0.15 -3.78838437086395 34.56982556343213 8.016860187077762 0 0 0
4449 49 8 -0.15 -3.7883807331419077 36.18445672820543 10.814034062137496 0 -1 0
4522 49 8 -0.15 -3.7883812703222706 32.95520648869647 10.81403444458695 0 0 0
4572 49 8 0.0 -1.1434321209659473 31.33013451095095 9.91242349258 0 0 0
4613 49 8 0.0 -1.1397566429451442 32.95161886222986 7.124384330895583 0 0 0
4641 49 8 0.0 -1.1857895471310742 36.15420581507299 7.049087712119465 0 -1 0
4687 49 8 0.0 -1.1392607466143079 34.599742884306856 9.833934740745548 0 0 0
4776 49 8 0.0 1.4680216017973795 34.524396685955004 6.164342450925195 0 0 0
4819 49 8 0.0 1.5727216399788422 36.17626836980962 8.950317219883418 0 -1 0
4832 49 8 0.0 1.52517496504175 31.32020224955459 6.112818183833699 0 0 0
4941 49 8 0.0 1.546909057390562 32.992795525503105 8.964523369843043 0 0 0
4804 49 8 0.0 1.5418699588580311 31.29677565629744 11.681729429985698 0 0 0
4856 49 8 0.0 1.5094166493603012 34.5373330370576 11.76468574106943 0 0 0
4375 49 8 -0.15 -3.7883821998144764 3.891962630878383 16.40839147492623 0 0 0
4433 49 8 -0.15 -3.788378822364196 -0.9519060002837884 13.611211380468273 0 0 0
4486 49 8 -0.15 -3.788379967385588 0.662710013913162 16.40839388800562 0 0 0
4493 49 8 -0.15 -3.788376554159082 2.277340450625241 13.611210506114015 0 0 0
4435 49 8 -0.15 -3.788378964354877 -0.9519129042409895 19.20557619068963 0 0 0
4534 49 8 -0.15 -3.788378384788645 2.2773379818956196 19.205569983388077 0 0 0
4566 49 8 0.0 -1.144312631408311 3.8358660249851275 12.65406381666995 0 0 0
4692 49 8 0.0 -1.1726879934163992 -1.0239614406679585 15.464354296920188 0 0 0
4719 49 8 0.0 -1.2082591533207316 0.6853431390504797 12.654135878425786 0 0 0
4734 49 8 0.0 -1.150950519121182 2.2662051116161295 15.460662941399809 0 0 0
4794 49 8 0.0 1.5268022345422507 3.850041858811775 14.504294330387982 0 0 0
4923 49 8 0.0 1.4647199008205742 0.6078554675866806 14.506554815780088 0 0 0
4621 49 8 0.0 -1.1381542943207652 0.6442707844377726 18.23471255999339 0 0 0
4695 49 8 0.0 -1.10453532968545 3.8854011642135404 18.26230832237972 0 0 0
4801 49 8 0.0 1.5003495757422924 -0.9384441368693305 17.40842839229034 0 0 0
4907 49 8 0.0 1.4407981186782914 2.2573160133193526 17.333387884032835 0 0 0
4371 49 8 -0.15 -3.788387803799904 7.121213355306348 16.408389402163237 0 0 0
4431 49 8 -0.15 -3.7883820523729486 5.506588483591093 13.611214585073103 0 0 0
4438 49 8 -0.15 -3.788379332486387 10.350460541301011 16.408394465146134 0 0 0
4505 49 8 -0.15 -3.788382672029327 8.735837861028784 13.611212698967469 0 0 0
4499 49 8 -0.15 -3.7883811746526908 5.506594377240055 19.20557117460282 0 0 0
4535 49 8 -0.15 -3.7883773900054365 8.735842429015689 19.20556810397924 0 0 0
4637 49 8 0.0 -1.20520559902677 10.363759944468619 12.65183119245129 0 0 0
4647 49 8 0.0 -1.0927461739619317 8.679305308168752 15.501780454655982 0 0 0
4682 49 8 0.0 -1.102889226118127 7.108367209230425 12.688610254616538 0 0 0
4726 49 8 0.0 -1.1317600269829426 5.454367387410483 15.511203624907166 0 0 0
4876 49 8 0.0 1.455350575756711 10.318624743944795 14.503108069148196 0 0 0
4937 49 8 0.0 1.5604322003248234 7.033251135103083 14.517036683831 0 0 0
4639 49 8 0.0 -1.122946315318181 7.158137695617805 18.2737653291363 0 0 0
4664 49 8 0.0 -1.0591492547606656 10.382743548383662 18.2941602062908 0 0 0
4781 49 8 0.0 1.5493551383225068 8.709075066824346 17.271649413983 0 0 0
4822 49 8 0.0 1.5259217311552176 5.535301874063593 17.323704460347205 0 0 0
4386 49 8 -0.15 -3.7883836132770004 15.194344743247472 13.611217894112505 0 0 0
4417 49 8 -0.15 -3.7883852285863426 11.965093942935166 13.611215148211347 0 0 0
4507 49 8 -0.15 -3.788381847895996 13.57971465889181 16.408399352726565 0 0 0
4509 49 8 -0.15 -3.788380829175005 16.808959956050444 16.408399786436338 0 0 0
4381 49 8 -0.15 -3.78839314432804 11.965085027222434 19.20557583368447 0 0 0
4443 49 8 -0.15 -3.7883895639357243 15.194334812353642 19.20557593139594 0 0 0
4886 49 8 0.0 1.5141898262441524 15.179695722856083 17.37037046515879 0 0 0
4590 49 8 0.0 -1.0787286866751926 15.170261897531832 15.518338861052731 0 0 0
4624 49 8 0.0 -1.1366874016811643 16.836851761555213 12.700431249067965 0 0 0
4629 49 8 0.0 -1.1354376159438302 13.57229688063709 12.733203411598476 0 0 0
4709 49 8 0.0 -1.0828518044448328 11.966524345185224 15.477532038296443 0 0 0
4900 49 8 0.0 1.558678072584741 13.509740332464938 14.526929552746367 0 0 0
4944 49 8 0.0 1.5365585630208014 16.76651524656436 14.534483888882407 0 0 0
4697 49 8 0.0 -1.1045677004152743 16.792529366103448 18.281032707495445 0 0 0
4723 49 8 0.0 -1.0499482422215263 13.54094337493761 18.297478129669464 0 0 0
4823 49 8 0.0 1.5441336616584171 11.996389726639007 17.37079643525996 0 0 0
4374 49 8 -0.15 -3.7883870420254886 20.038218095033496 16.408407914739648 0 0 0
4406 49 8 -0.15 -3.7883849323004095 18.423594139692792 13.611227443294908 0 0 0
4485 49 8 -0.15 -3.7883835804216037 21.652843338557734 13.611222869167907 0 0 0
4504 49 8 -0.15 -3.78837745881608 23.26746365916573 16.408400290300126 0 0 0
4390 49 8 -0.15 -3.788387319922039 18.42358882910343 19.205578628807693 0 0 0
4526 49 8 -0.15 -3.788373653716689 21.65283457772302 19.205584470296078 0 0 0
4561 49 8 0.0 -1.096170072388912 20.06642489937276 12.657232865749098 0 0 0
4589 49 8 0.0 -1.1625141342238374 23.27534137043499 12.63593803711935 0 0 0
4699 49 8 0.0 -1.1392183289368591 18.356980922954985 15.470284036064513 0 0 0
4733 49 8 0.0 -1.1053154360925403 21.53277107335438 15.43832297902438 0 0 0
4774 49 8 0.0 1.5172831048859106 20.02480461004204 14.549443318033989 0 0 0
4898 49 8 0.0 1.5455515494526009 23.22022017308645 14.540162916574083 0 0 0
4581 49 8 0.0 -1.1157410181601344 19.991765230647037 18.24592787184873 0 0 0
4588 49 8 0.0 -1.0717802957649072 23.24499604596106 18.232637378022268 0 0 0
4793 49 8 0.0 1.531220483144586 18.44031823722935 17.334635304316024 0 0 0
4912 49 8 0.0 1.5101704671264706 21.663808540461233 17.32710946208396 0 0 0
4410 49 8 -0.15 -3.7883823923145643 26.496717004420972 16.408407634919467 0 0 0
4428 49 8 -0.15 -3.7883822866703323 24.8820873755172 13.611225197006931 0 0 0
4466 49 8 -0.15 -3.788377653464011 29.725962642345905 16.40839931635586 0 0 0
4531 49 8 -0.15 -3.7883792084185797 28.111336488381784 13.611225002558152 0 0 0
4481 49 8 -0.15 -3.7883796296741847 24.882087721532173 19.205580003650805 0 0 0
4546 49 8 -0.15 -3.788373992694847 28.111337664706905 19.205579084489187 0 0 0
4685 49 8 0.0 -1.0864037431950824 26.53907636056232 12.613851841646069 0 0 0
4691 49 8 0.0 -1.0532237955528443 28.10256479405634 15.446497182978627 0 0 0
4717 49 8 0.0 -1.0653551806329737 24.867141349171984 15.455484984250983 0 0 0
4725 49 8 0.0 -1.1415587775225775 29.749023909957096 12.64486579098591 0 0 0
4901 49 8 0.0 1.5192912483217407 29.758482287897724 14.566769518224357 0 0 0
4920 49 8 0.0 1.4943521318196735 26.47921191285874 14.46381102387978 0 0 0
4649 49 8 0.0 -1.0591905905151588 26.4564918695526 18.24576258357003 0 0 0
4745 49 8 0.0 -1.0565445771439728 29.777830653119736 18.228753136176454 0 0 0
4808 49 8 0.0 1.539032602599029 28.139931144421613 17.287285952662923 0 0 0
4825 49 8 0.0 1.5493961574937198 24.896377290731277 17.319547232627727 0 0 0
4369 49 8 -0.15 -3.7883890274558025 32.955205926377374 16.408404825938657 0 0 0
4377 49 8 -0.15 -3.788381912182508 34.56983247172694 13.611219634669718 0 0 0
4446 49 8 -0.15 -3.788382383218892 36.18445664872468 16.40838970846792 0 -1 0
4467 49 8 -0.15 -3.788381526733418 31.340581652621577 13.611220535790382 0 0 0
4378 49 8 -0.15 -3.7883828782422793 34.56983423507773 19.205574262123818 0 0 0
4496 49 8 -0.15 -3.7883774496571427 31.340582988610073 19.20558020366312 0 0 0
4580 49 8 0.0 -1.1083604659518411 31.37350739142191 15.447870423773251 0 0 0
4646 49 8 0.0 -1.1935688383937146 36.191103033722506 12.607024377066601 0 -1 0
4675 49 8 0.0 -1.1473863782233966 34.52879954390382 15.475628113953661 0 0 0
4678 49 8 0.0 -1.0940183798241612 33.00064206908216 12.664548480036622 0 0 0
4772 49 8 0.0 1.516090544654642 32.93111280508779 14.508705816158622 0 0 0
4928 49 8 0.0 1.4585243291639134 36.17788166040763 14.557876574783958 0 -1 0
4694 49 8 0.0 -1.1570110809690386 32.918854516454225 18.27309084754996 0 0 0
4712 49 8 0.0 -1.1388786590982756 36.16093757385842 18.315516561067014 0 -1 0
4826 49 8 0.0 1.4700704289289461 34.60474024696468 17.32565240039099 0 0 0
4904 49 8 0.0 1.5242533150895694 31.410209501785378 17.321040252681797 0 0 0
4380 49 8 -0.15 -3.788388751641714 3.891958995216593 22.002747596578082 0 0 0
4422 49 8 -0.15 -3.7883819354013557 0.6627087756650653 22.00275090380515 0 0 0
4388 49 8 -0.15 -3.7883859391848427 -0.9519106806065658 24.79992957382433 0 0 0
4459 49 8 -0.15 -3.7883833254402335 2.277341089055648 24.79993340431376 0 0 0
4644 49 8 0.0 -1.1296692464350306 2.313466208236083 21.045570956637974 0 0 0
4752 49 8 0.0 -1.1426974794739453 -0.9986710778939988 21.09508016900877 0 0 0
4790 49 8 0.0 1.5100370526491544 -0.9635573491060638 22.961574600699713 0 0 0
4833 49 8 0.0 1.536930001195819 0.6265290248028639 20.214291536856084 0 0 0
4840 49 8 0.0 1.5488737277573337 2.2835047150669143 22.93296163305301 0 0 0
4918 49 8 0.0 1.4703113515637956 3.805403392835497 20.12522666235574 0 0 0
4593 49 8 0.0 -1.1304629619938118 2.3474685450136756 26.66283353370911 0 0 0
4606 49 8 0.0 -1.1002879650753277 3.944928389890519 23.86827428072413 0 0 0
4618 49 8 0.0 -1.0810270391808272 0.7344911503952679 23.849130882733753 0 0 0
4693 49 8 0.0 -1.0535983693272661 -0.8964869898423483 26.606812037074388 0 0 0
4778 49 8 0.0 1.5259619313182349 0.5963460956177395 25.716605620613798 0 0 0
4850 49 8 0.0 1.5078541214521675 3.8881045429826058 25.694201881576728 0 0 0
4482 49 8 -0.15 -3.7883825621057357 7.1212189154600285 22.002747744089216 0 0 0
4514 49 8 -0.15 -3.7883807428470546 10.350463597920209 22.00274784123293 0 0 0
4418 49 8 -0.15 -3.7883847563138966 5.506590660867567 24.799928868959903 0 0 0
4540 49 8 -0.15 -3.7883802614615694 8.73583455228357 24.799923031866697 0 0 0
4614 49 8 0.0 -1.144820500246876 5.555869809362002 21.07201543536778 0 0 0
4742 49 8 0.0 -1.1304814253334534 8.726644857161276 21.08941698711313 0 0 0
4849 49 8 0.0 1.4909818184815136 7.07591133353606 20.08584170366798 0 0 0
4926 49 8 0.0 1.565030678497948 8.684368695327436 22.887272773097298 0 0 0
4933 49 8 0.0 1.5539733682178853 10.356406953558206 20.118932577024687 0 0 0
4939 49 8 0.0 1.490763304451213 5.529505793588239 22.853309715946686 0 0 0
4577 49 8 0.0 -1.1132537817832757 8.798473167961191 26.663709863792864 0 0 0
4631 49 8 0.0 -1.0988766064442848 5.495446230226901 26.675188636212482 0 0 0
4652 49 8 0.0 -1.1092744634255418 10.326793364780672 23.890856435683123 0 0 0
4671 49 8 0.0 -1.0744626465451401 7.113612664778985 23.854477954394927 0 0 0
4830 49 8 0.0 1.5217759226928111 10.358583323234976 25.73479249690023 0 0 0
4903 49 8 0.0 1.4909501773906446 7.105580351713027 25.730787830051117 0 0 0
4506 49 8 -0.15 -3.78838688955032 13.57970714940916 22.00275096204562 0 0 0
4525 49 8 -0.15 -3.788379754190355 16.808962661505536 22.00275412814157 0 0 0
4451 49 8 -0.15 -3.7883855304426968 11.965080933595049 24.79993061446345 0 0 0
4468 49 8 -0.15 -3.788383941528121 15.194335229362181 24.799935851415714 0 0 0
4656 49 8 0.0 -1.0869592568598587 15.224774851278386 21.04782091311163 0 0 0
4696 49 8 0.0 -1.1314692106432627 11.96613676596919 21.088832170918412 0 0 0
4756 49 8 0.0 1.575042541593911 13.508581562184238 20.199027121329042 0 0 0
4766 49 8 0.0 1.547218165104309 16.81369716147194 20.07420762642947 0 0 0
4768 49 8 0.0 1.5173905103286525 15.229049142423326 22.89918663775469 0 0 0
4870 49 8 0.0 1.5160022136666529 11.945396271937552 22.95999543528198 0 0 0
4570 49 8 0.0 -1.1121725363924808 11.981368644720687 26.653088815189108 0 0 0
4673 49 8 0.0 -1.1062413197589032 13.638915538689494 23.863951926255837 0 0 0
4688 49 8 0.0 -1.1397048733359076 16.8773973413402 23.864415710401964 0 0 0
4701 49 8 0.0 -1.140626510343604 15.197534899931574 26.686558359567343 0 0 0
4799 49 8 0.0 1.5051835058877925 13.55243852753255 25.697520199713455 0 0 0
4866 49 8 0.0 1.5107402204227474 16.77868940258509 25.719493247870158 0 0 0
4382 49 8 -0.15 -3.7883825246531857 23.26746105789002 22.002755505964362 0 0 0
4461 49 8 -0.15 -3.7883785207405496 20.038207783008108 22.00276508538533 0 0 0
4413 49 8 -0.15 -3.7883826539741827 18.423587716050527 24.79993968823138 0 0 0
4420 49 8 -0.15 -3.7883844661666717 21.65283897090845 24.799942635388696 0 0 0
4632 49 8 0.0 -1.1790471765540216 18.450499953735786 21.040992168389614 0 0 0
4748 49 8 0.0 -1.1247413417319905 21.619842526704073 21.037275816999294 0 0 0
4764 49 8 0.0 1.4579654692622637 21.63495388724731 22.939826653012823 0 0 0
4817 49 8 0.0 1.5451011424387848 20.063933353805535 20.088258523969195 0 0 0
4821 49 8 0.0 1.5225035298974436 23.274543919998266 20.12874436099846 0 0 0
4888 49 8 0.0 1.5020084147930546 18.382239242922168 22.923549611350598 0 0 0
4591 49 8 0.0 -1.1345852712137259 20.05702945446906 23.854302677824645 0 0 0
4623 49 8 0.0 -1.1465078058769904 21.632834481776214 26.703891670346824 0 0 0
4667 49 8 0.0 -1.2102591223299435 23.265056577517573 23.844777950292936 0 0 0
4746 49 8 0.0 -1.1049346408394096 18.440414760495873 26.63608653676962 0 0 0
4771 49 8 0.0 1.4281240702362357 20.04568234681946 25.689141223010036 0 0 0
4932 49 8 0.0 1.5159347744559748 23.257912564553017 25.7381053764426 0 0 0
4419 49 8 -0.15 -3.788378534007751 26.496707190492227 22.00276766764856 0 0 0
4442 49 8 -0.15 -3.7883797844794938 29.725961876545142 22.002752889953808 0 0 0
4470 49 8 -0.15 -3.7883749917558323 24.882082833627894 24.799943577041482 0 0 0
4539 49 8 -0.15 -3.7883739970487023 28.111336495139327 24.799943186259306 0 0 0
4626 49 8 0.0 -1.1103900161091438 24.838516190451827 21.027038414531404 0 0 0
4666 49 8 0.0 -1.065795699476664 28.068567057657578 21.046680212311166 0 0 0
4777 49 8 0.0 1.4157407883621516 24.860451590114074 22.886999060946586 0 0 0
4899 49 8 0.0 1.5457599455770383 28.09857224552456 22.943386155014846 0 0 0
4931 49 8 0.0 1.555298385634695 26.500235719404333 20.15459352526469 0 0 0
4938 49 8 0.0 1.489664664840659 29.72118838933668 20.120091191486992 0 0 0
4562 49 8 0.0 -1.1469588113904314 28.087762125688503 26.638095488368194 0 0 0
4634 49 8 0.0 -1.143255312676649 24.843714390919498 26.655301741873792 0 0 0
4713 49 8 0.0 -1.0855999343790512 29.7271548222948 23.89297832775699 0 0 0
4718 49 8 0.0 -1.1201999193864898 26.472665606938694 23.87198006113912 0 0 0
4807 49 8 0.0 1.496078265272279 29.717644190094475 25.70084774598559 0 0 0
4835 49 8 0.0 1.4831380042424123 26.400127445520457 25.7447874983982 0 0 0
4432 49 8 -0.15 -3.788381970101114 36.18445382450301 22.002752044780955 0 -1 0
4511 49 8 -0.15 -3.7883794288242605 32.95521552812626 22.002753600706477 0 0 0
4429 49 8 -0.15 -3.788381202531096 34.5698399856872 24.799932261261386 0 0 0
4444 49 8 -0.15 -3.788381292800854 31.340588826927537 24.799940244745084 0 0 0
4661 49 8 0.0 -1.11941330451611 31.32768533292006 21.099715222198558 0 0 0
4704 49 8 0.0 -1.083270779446367 34.61701919895076 21.042369705694366 0 0 0
4829 49 8 0.0 1.5371464967697586 31.40806610892729 22.92860965710399 0 0 0
4847 49 8 0.0 1.552401748929532 32.945831860887026 20.08063632490432 0 0 0
4877 49 8 0.0 1.5762679953438672 34.5820023568524 22.937576991815035 0 0 0
4563 49 8 0.0 -1.1264178740069828 31.37799908888084 26.712886355355586 0 0 0
4616 49 8 0.0 -1.1356755127376312 32.96512550928662 23.834622354120302 0 0 0