11280
Atoms. Timestep: 12600000
S 43.049 0.508771 40.9085
C 44.6117 -0.364577 41.2996
C 45.6074 0.280255 40.2851
H 44.5803 -1.47452 41.3307
H 44.8395 0.0803534 42.3112
H 45.415 0.193042 39.2572
C 47.0953 -0.0395995 40.5104
H 45.4482 1.35074 40.3449
H 47.1933 -1.1177 40.4042
H 47.3807 0.154326 41.5573
C 48.2142 0.60965 39.6952
H 48.0933 0.420705 38.6269
C 49.5553 0.0338454 40.0978
H 48.1651 1.67468 39.7276
H 49.5163 -1.05559 40.1023
H 49.8975 0.311908 41.0825
C 50.6264 0.404811 39.0951
H 50.545 -0.0198628 38.0439
C 52.0456 0.063612 39.5179
H 50.5713 1.46946 38.9794
H 52.0518 -0.948596 39.7116
H 52.149 0.638629 40.4724
C 53.1014 0.423089 38.5221
H 52.8168 -0.013916 37.5083
C 54.5316 0.00257602 38.7639
H 53.1254 1.42038 38.2823
H 54.6128 -1.0696 38.8519
H 54.9089 0.332048 39.6928
C 55.3827 0.485473 37.5659
H 55.0158 -0.0385991 36.7025
C 56.9215 0.18678 37.6515
H 55.1635 1.52479 37.2711
H 57.3442 0.590505 36.7176
H 57.157 -0.890145 37.6663
C 57.5287 0.858614 38.8504
H 56.9943 1.73974 39.119
C 59.0714 1.08363 38.6755
H 57.198 0.15513 39.607
H 59.3782 1.7353 37.8383
H 59.4592 0.160443 38.4142
C 59.6529 1.47413 40.078
H 59.0884 2.38898 40.384
C 61.172 1.77469 40.0663
H 59.498 0.717983 40.8703
H 61.3827 2.36742 40.9566
H 61.3358 2.43894 39.2524
C 62.1946 0.644642 39.9608
C 63.1575 -1.50696 39.9641
C 64.0197 -0.582198 39.27
C 63.4587 0.750779 39.2516
C 62.0614 -0.708966 40.4162
H 61.3405 -1.15134 41.005
H 63.9285 1.58569 38.8427
H 63.3289 36.1999 40.1059
H 65.0126 -0.812333 38.8351
He 62.8139 -0.343984 39.5646
Fe 63.8064 0.0789067 41.1898
C 63.2495 -0.428286 -1.67081
C 64.5774 -0.869849 -1.86817
C 65.419 0.215002 -2.20008
C 64.6318 1.43289 -2.14109
C 66.8369 0.119875 42.2544
C 63.272 1.04021 -1.84462
C 68.2932 0.0270444 42.0991
C 69.762 -0.0501638 41.8054
C 70.3032 -0.473007 40.5493
C 71.733 -0.289184 40.6351
C 72.0585 0.179609 41.9764
C 70.8546 0.373971 -2.08224
H 62.4855 -1.08727 -1.36164
H 64.8602 -1.93545 -1.82574
H 62.4354 1.70224 -1.62594
H 73.0709 0.420827 42.3234
H 70.8878 0.732213 -1.04928
H 72.444 -0.538568 39.9196
H 69.8111 -0.767748 39.5979
H 65.0924 2.35765 42.2523
He 64.2385 0.312131 -1.86207
He 70.9485 -0.0599121 41.5361
Fe 71.1536 -1.64309 42.0653
C 72.4021 35.8595 -1.8017
C 71.2697 35.1256 -2.20899
C 71.977 -1.96374 -0.7673
C 70.0823 35.742 -1.62268
C 70.57 36.6838 -0.67956
H 71.264 34.3653 41.7278
H 69.055 35.3983 -1.70865
H 73.4442 35.7739 -2.0754
H 69.9583 -1.55446 0.0510424
H 72.6786 -1.30263 -0.278992
He 71.2854 35.9543 -1.36618
S 43.0332 5.88062 4.107
C 44.3703 5.404 5.26561
C 45.6633 5.16066 4.4546
H 44.1924 4.55951 5.97959
H 44.5383 6.32887 5.75221
H 45.5344 4.25439 3.90629
C 46.9101 5.22295 5.2961
H 45.7387 5.8516 3.60972
H 46.8317 4.5395 6.15907
H 47.0668 6.22847 5.66784
C 48.2312 4.92851 4.56385
H 48.0807 3.91566 4.13603
C 49.4243 4.78257 5.58791
H 48.5783 5.6119 3.81398
H 49.0823 4.10796 6.39524
H 49.6154 5.68337 6.15627
C 50.7177 4.24538 4.89034
H 50.5081 3.20496 4.65666
C 51.9931 4.19272 5.80957
H 51.0083 4.68606 3.90594
H 51.7211 3.59434 6.71064
H 52.1 5.22116 6.12936
C 53.2853 3.81336 5.15719
H 53.1097 2.80092 4.80892
C 54.528 3.62062 5.99089
H 53.5803 4.51179 4.29077
H 54.1723 3.15052 6.89825
H 54.8657 4.61231 6.24169
C 55.5743 2.70065 5.3879
H 55.1304 1.80711 5.05803
C 56.8304 2.39857 6.24554
H 55.9641 3.09443 4.44082
H 56.4846 2.12783 7.21636
H 57.5413 3.2618 6.32927
C 57.7297 1.26534 5.77377
H 58.225 0.803521 6.57817
C 58.9063 1.62098 4.84247
H 57.2367 0.385877 5.37263
H 59.5564 2.38976 5.23234
H 58.3256 1.94878 4.03367
C 59.6629 0.293157 4.49379
H 60.118 -0.187705 5.38287
C 60.7211 0.480255 3.47064
H 58.952 -0.512663 4.15524
H 60.3501 1.13091 2.62223
H 60.9584 -0.466385 3.00601
C 62.0484 0.958401 4.00218
C 63.9591 2.19412 4.4976
C 64.1005 0.920505 5.14338
C 62.8858 0.204304 4.99542
C 62.6928 2.24772 3.79664
H 62.3696 3.08622 3.10965
H 62.6701 -0.748746 5.50758
H 64.6467 2.94555 4.48309
H 65.0031 0.661918 5.67586
He 63.2627 1.19495 4.32473
Fe 63.9682 0.728704 3.13047
C 63.0368 0.822245 1.21694
C 64.1484 1.68336 1.27534
C 65.3033 0.954601 1.67664
C 64.9621 -0.425385 1.78539
C 66.6655 1.43729 1.69942
C 63.5194 -0.506 1.60908
C 68.0648 1.87561 1.57269
C 69.535 2.12486 1.56169
C 70.552 1.11422 1.53193
C 71.7899 1.85075 1.40775
C 71.5357 3.27752 1.41524
C 70.1051 3.45415 1.58733
H 62.0342 1.10053 0.987357
H 64.0741 2.73985 1.00902
H 62.9305 -1.40624 1.67563
H 72.2843 4.05198 1.34457
H 69.5786 4.34729 1.66459
H 72.7772 1.42326 1.3885
H 70.5116 0.032468 1.58179
H 65.6317 -1.30272 1.96508
He 64.2658 0.428286 1.28357
He 70.7457 2.43521 1.39753
Fe 70.9195 2.23992 3.13434
C 69.9091 2.28515 4.97754
C 70.316 3.63396 4.53903
C 71.1476 1.48176 5.15864
C 71.7547 3.56876 4.25086
C 72.2252 2.24295 4.6778
H 69.7302 4.53366 4.57896
H 72.3428 4.35131 3.83082
H 68.9255 1.95448 5.23595
H 73.2776 1.8583 4.59942
H 71.09 0.509146 5.57598
He 71.0794 2.71039 4.60863
S 43.1714 1.08163 12.6887
C 44.5328 2.30307 12.1831
C 45.9095 1.64156 12.3225
H 44.4064 3.22084 12.7711
H 44.4333 2.5276 11.1344
H 46.0267 1.31187 13.4337
C 47.013 2.47319 11.8636
H 45.8547 0.678449 11.7807
H 47.0024 3.50565 12.2524
H 46.9439 2.57757 10.7876
C 48.3993 1.82441 12.1196
H 48.7444 1.86852 13.2026
C 49.4656 2.37466 11.2606
H 48.4426 0.764158 11.9263
H 49.6969 3.44418 11.3827
H 49.3266 2.14601 10.2285
C 50.8126 1.78343 11.7096
H 50.9882 2.06477 12.7611
C 51.9831 2.14335 10.7615
H 50.6908 0.713946 11.6517
H 52.0852 3.21772 10.642
H 51.7163 1.83347 9.70457
C 53.3362 1.46272 11.1063
H 53.6349 1.75811 12.0831
C 54.4751 1.73551 10.2061
H 53.2177 0.389881 11.2559
H 54.6958 2.82217 10.2108
H 54.1762 1.46287 9.24171
C 55.6016 0.774654 10.5162
H 55.6996 0.645112 11.5804
C 56.9543 1.02628 9.85208
H 55.3104 -0.216248 10.3042
H 57.0674 2.09921 9.99957
H 56.8327 0.882205 8.79491
C 58.0642 0.122824 10.3179
H 58.3677 0.432409 11.2492
C 59.274 0.106412 9.35422
H 57.5286 -0.878695 10.4414
H 59.7041 1.09714 9.13272
H 59.0825 -0.262185 8.33066
C 60.4392 -0.672976 9.96892
H 60.7244 -0.114699 10.8709
C 61.6711 -0.768095 9.0777
H 60.1368 -1.71974 10.2288
H 61.9673 0.255924 8.73265
H 61.4812 -1.41126 8.2082
C 62.945 -1.41354 9.663
C 64.4958 36.1195 10.8397
C 65.209 -1.81414 9.96166
C 64.2547 -1.08133 9.19984
C 63.091 36.3458 10.6615
H 62.2582 35.8388 11.12
H 64.3446 -0.342276 8.40621
H 64.9424 35.4136 11.513
H 66.2523 -1.78562 9.85445
He 63.9556 -1.96056 9.97154
Fe 64.1399 -0.689269 11.2217
C 63.2544 0.503386 12.5599
C 64.5557 0.254466 12.9626
C 65.5244 0.659928 11.9438
C 64.7631 1.19947 10.8675
C 66.9511 0.482152 11.9521
C 63.3673 1.09335 11.247
C 68.4195 0.250105 12.0117
C 69.838 -0.0668922 12.1341
C 70.9346 0.861492 12.3333
C 72.152 0.155995 12.3461
C 71.8262 -1.29928 12.2069
C 70.4062 -1.35901 11.9139
H 62.3074 0.428421 13.1511
H 64.7253 -0.125762 13.9995
H 62.5281 1.49944 10.6842
H 72.5281 36.6016 12.2945
H 69.8335 36.5339 11.651
H 73.104 0.598847 12.4188
H 70.9372 1.93194 12.471
H 65.0892 1.66396 10.0208
He 64.2903 1.00591 11.9814
He 70.9723 -0.340839 12.2244
Fe 71.2282 -0.0473219 10.4849
C 70.7419 -1.58066 9.36445
C 72.1844 -1.42041 9.38426
C 70.2135 -0.356554 8.84461
C 72.444 -0.0804832 8.91971
C 71.2282 0.556241 8.54711
H 72.9626 36.6177 9.63012
H 73.3562 0.404599 8.90478
H 70.1253 36.2782 9.58758
H 71.1198 1.5502 8.18724
H 69.1445 -0.0681092 8.58484
He 71.4006 -0.602933 8.85341
S 43.0532 33.0054 12.8372
C 43.7466 34.6426 13.1041
C 44.4556 35.1016 11.7857
H 44.505 34.3997 13.8875
H 43.1026 35.3841 13.5743
H 45.0231 34.2028 11.4247
C 45.4472 36.2453 12.0467
H 43.7513 35.4042 11.0447
H 44.9296 -1.6842 12.4476
H 45.9079 36.6252 11.1451
C 46.5655 35.77 13.0361
H 46.1522 35.6039 13.9742
C 47.5987 -1.82058 13.2882
H 47.1807 34.9477 12.5997
H 47.1158 -1.07395 13.8643
H 47.8393 -1.30582 12.3327
C 48.7782 36.202 14.0985
H 48.5294 35.7893 15.0709
C 49.9438 -1.49056 14.28
H 49.2042 35.4307 13.4196
H 49.7993 -0.684711 15.0173
H 50.0899 -0.918199 13.3284
C 51.3251 36.5836 14.578
H 51.2262 36.0499 15.5766
C 52.5628 -1.23493 14.6056
H 51.4249 35.7501 13.9136
H 52.5026 -0.60646 15.4923
H 52.5989 -0.708711 13.6904
C 53.8422 -2.0398 14.621
H 53.8045 36.0077 15.4733
C 55.1192 -1.18756 14.4655
H 53.9541 36.0684 13.7897
H 55.086 -0.308626 15.0932
H 55.0642 -0.795508 13.5004
C 56.3435 -1.96719 14.6979
H 56.5118 -2.05997 15.7694
C 57.5162 -1.22806 14.1007
H 56.317 35.7874 14.2448
H 57.4067 -0.142936 14.3029
H 57.5033 -1.26903 13.0017
C 58.8661 -1.68404 14.5395
H 58.8689 -1.85074 15.6098
C 60.0075 -0.814511 14.0763
H 59.0177 36.0382 14.2014
H 59.9066 -0.614549 13.0552
H 60.857 -1.44607 14.3117
C 60.0567 0.480575 14.9007
C 60.2232 2.77854 15.4711
C 59.6219 2.10522 16.5628
C 59.4959 0.706039 16.2064
C 60.4789 1.7769 14.4392
H 60.9457 1.99266 13.4466
H 58.955 0.0498932 16.8474
H 60.4368 3.83882 15.3549
H 59.2212 2.51538 17.4269
He 59.7284 1.67783 15.3333
Fe 61.3972 1.16278 16.1789
C 61.7644 -0.446772 17.1863
C 62.947 -0.214318 16.5143
C 63.5214 0.98363 16.9829
C 62.5082 1.57207 17.9212
C 64.9158 1.44482 16.8602
C 61.4193 0.66093 18.053
C 66.3201 1.96006 16.732
C 67.71 2.4283 16.5263
C 68.4083 2.14768 15.3028
C 69.5637 3.04483 15.1387
C 69.6987 3.67707 16.4193
C 68.5917 3.32005 17.3026
H 61.2544 -1.38016 17.162
H 63.4276 -1.03605 16.0244
H 60.5894 0.759198 18.7471
H 70.4662 4.38951 16.6198
H 68.4281 3.73145 18.2622
H 70.261 3.07399 14.3011
H 68.1339 1.3616 14.6224
H 62.6598 2.42363 18.527
He 62.5831 0.383894 17.6289
He 68.7688 3.06031 16.0408
Fe 69.8412 1.69541 16.6707
C 71.6014 2.36648 17.5104
C 71.8601 2.12522 16.0964
C 71.2298 1.09241 18.1131
C 71.5963 0.770699 15.8289
C 71.1933 0.131837 17.0126
H 72.328 2.82325 15.3956
H 71.8949 0.259642 14.9186
H 71.8696 3.36227 17.9098
H 71.1031 -0.93613 17.1047
H 71.0156 0.921119 19.1687
He 71.3751 1.35988 16.9416
S 43.0877 31.7348 19.2741
C 44.2465 32.887 20.1901
C 45.6792 32.8029 19.5775
H 44.2756 32.5165 21.2063
H 43.8111 33.891 20.1983
H 46.0987 31.8097 19.6274
C 46.71 33.7505 20.1122
H 45.5803 33.0148 18.4509
H 47.1333 33.407 21.0426
H 46.3215 34.7728 20.2843
C 47.8649 33.9464 19.1153
H 48.2434 33.0115 18.7188
C 49.1291 34.6362 19.7693
H 47.5297 34.5648 18.2635
H 49.4436 34.0158 20.6566
H 48.8657 35.5592 20.1971
C 50.3643 34.8271 18.9151
H 50.8263 33.8891 18.4893
C 51.5023 35.6263 19.6865
H 50.0679 35.4761 18.165
H 51.715 35.2031 20.6721
H 51.2089 36.6402 19.8915
C 52.8075 35.5684 18.9655
H 53.0798 34.541 18.6377
C 53.9421 36.2332 19.8746
H 52.6835 36.2308 18.096
H 54.0506 35.7728 20.857
H 53.7272 -1.46659 20.0463
C 55.2223 36.0851 19.0583
H 55.1624 35.0613 18.6956
C 56.5422 36.1524 19.7941
H 55.2092 -2.00026 18.1243
H 56.5598 35.3687 20.5792
H 56.5854 -1.66721 20.4137
C 57.7673 35.9617 18.8883
H 57.6803 34.8498 18.6539
C 59.0949 36.3311 19.673
H 57.6958 36.4529 17.9867
H 59.0012 -1.50287 20.2518
H 59.8784 36.6108 18.9721
C 59.7025 35.1569 20.5882
H 58.8129 34.7548 21.0916
C 60.7038 35.7219 21.662
H 60.0198 34.2865 19.9947
H 60.8526 35.0283 22.4417
H 60.2367 36.5268 22.1369
C 62.0189 36.1159 20.9589
C 64.0067 36.2156 19.6998
C 63.7386 -1.19956 20.0433
C 62.5564 -1.30124 20.879
C 62.9386 35.3198 20.1925
H 62.8592 34.2632 19.9338
H 62.1039 -0.45269 21.3514
H 64.8355 35.9187 19.0116
H 64.3379 -0.343471 19.764
He 63.1316 36.503 20.4387
Fe 63.9503 36.3348 21.722
C 63.4822 36.1309 23.7102
C 64.8172 35.7029 23.3668
C 65.5549 -1.89248 22.8706
C 64.5815 -0.779728 22.8339
C 66.9685 -1.7905 22.5407
C 63.3265 -1.28593 23.2979
C 68.401 -1.62752 22.3716
C 69.8609 -1.4625 22.1149
C 70.4874 -1.4156 20.8508
C 71.8693 -1.18239 21.0492
C 72.1492 -1.11343 22.4342
C 70.9133 -1.40215 23.131
H 62.7309 35.5039 24.1452
H 65.0938 34.7452 23.5685
H 62.4191 -0.712893 23.3823
H 73.1378 -0.930029 22.8824
H 70.7306 -1.40515 24.2203
H 72.5836 -1.11148 20.2397
H 70.0785 -1.48457 19.8215
H 64.7182 0.299256 22.5995
He 64.3487 -1.90327 23.086
He 71.02 -1.07495 21.9317
Fe 71.3804 35.8629 21.9998
C 70.481 33.9098 21.8112
C 70.28 34.553 23.0557
C 71.8857 33.9142 21.5791
C 71.5801 34.779 23.7835
C 72.5119 34.4562 22.7739
H 69.3108 34.8047 23.4299
H 71.6499 35.2444 24.735
H 69.6965 33.4152 21.2297
H 73.5916 34.7115 22.8959
H 72.3691 33.5119 20.7032
He 71.3585 34.5134 22.5363
S 42.9011 36.2846 21.9408
C 44.1363 -1.53197 22.8108
C 45.63 -1.69718 22.4039
H 43.8601 -1.54012 23.875
H 43.9135 -0.477152 22.5616
H 45.8884 35.9403 22.3693
C 46.67 -1.03203 23.324
H 45.8532 -1.22142 21.4622
H 46.5798 -1.39559 24.2852
H 46.4109 -0.0102119 23.4561
C 48.1429 -1.32487 22.8497
H 48.2019 36.3091 22.7447
C 49.2826 -0.675542 23.6382
H 48.2862 -1.00139 21.8163
H 49.0918 -0.5765 24.738
H 49.3709 0.317398 23.3119
C 50.6494 -1.28331 23.4384
H 50.7345 36.4275 23.8545
C 51.8688 -0.401834 23.957
H 50.7102 -1.50284 22.4055
H 51.8372 -0.10599 24.982
H 51.8185 0.515432 23.378
C 53.3078 -1.00516 23.6211
H 53.4584 -2.04343 24.0579
C 54.4262 -0.211663 24.2684
H 53.3008 -1.00711 22.5233
H 54.389 -0.285439 25.2901
H 54.4461 0.744493 24.0385
C 55.8184 -0.803036 23.902
H 55.8351 -1.82402 24.1748
C 57.0143 -0.137207 24.6682
H 55.9579 -0.72698 22.8022
H 56.8952 -0.0673535 25.7413
H 57.0104 0.928911 24.3479
C 58.3573 -0.961124 24.359
H 58.1385 -1.99083 24.62
C 59.5676 -0.482184 25.0857
H 58.5048 -0.909082 23.212
H 59.5885 0.538277 24.8949
H 60.4578 -0.9115 24.5066
C 59.7694 -0.883078 26.5675
H 58.7415 -0.867502 27.0838
C 60.5735 0.0662676 27.428
H 60.094 -1.87557 26.6154
H 60.6529 -0.456609 28.3936
H 60.1982 1.03667 27.4918
C 62.0699 0.110687 27.0064
C 64.2416 -0.501749 26.538
C 64.0069 0.787719 25.9085
C 62.6818 1.15708 26.2936
C 63.04 -0.900146 27.185
H 62.9628 -1.85057 27.6739
H 62.2 2.0909 25.9549
H 65.1579 -1.1432 26.4363
H 64.6918 1.35175 25.3203
He 63.2884 0.216251 26.7234
Fe 63.8747 0.905906 27.9404
C 63.3126 0.704929 29.8848
C 64.4013 -0.124812 29.5601
C 65.4969 0.643919 29.1077
C 65.0345 2.04971 29.0164
C 66.87 0.25783 28.8005
C 63.7462 2.0802 29.5951
C 68.2338 -0.0362539 28.4224
C 69.5868 -0.31566 28.2303
C 70.5308 -0.805679 29.2145
C 71.8684 -0.905361 28.5829
C 71.7433 -0.411656 27.2041
C 70.2965 -0.199869 26.9661
H 62.3642 0.395435 30.2971
H 64.3535 -1.16681 29.7128
H 63.2501 3.07654 29.8329
H 72.5125 -0.312491 26.457
H 69.8469 0.132091 26.0283
H 72.9014 -1.12654 28.9725
H 70.388 -0.861393 30.266
H 65.6495 2.88083 28.6793
He 64.2439 1.02238 29.2041
He 70.7861 -0.324847 28.1221
Fe 71.0819 0.966542 28.3806
C 71.9557 1.73746 30.0474
C 70.5071 1.94049 30.1027
C 72.3959 2.37917 28.861
C 70.1439 2.62576 28.9313
C 71.3144 2.95187 28.2108
H 69.8773 1.60617 30.8666
H 69.218 3.06655 28.6092
H 72.6676 1.2729 30.7964
H 71.3674 3.53277 27.2905
H 73.4317 2.47046 28.6293
He 71.2909 2.52625 29.3575
S 43.2499 34.6458 26.9482
C 44.5095 35.9137 27.0096
C 45.8034 35.2082 27.3391
H 44.2322 36.6419 27.7435
H 44.5795 36.4567 26.0509
H 45.7814 34.474 28.1534
C 47.0445 36.0923 27.6242
H 45.935 34.6321 26.4547
H 46.8916 -1.97369 28.5069
H 47.1555 -2.02453 26.762
C 48.4728 35.3614 27.8374
H 48.5812 34.8847 28.8553
C 49.5562 36.4144 27.6985
H 48.6068 34.6462 27.1056
H 49.4107 -1.62993 28.4488
H 49.317 -1.69546 26.7522
C 50.9389 35.7442 27.8832
H 50.8483 35.5805 28.9805
C 52.1796 36.6126 27.4361
H 50.8363 34.8096 27.4125
H 52.2731 -1.19214 28.0152
H 52.0473 -1.82033 26.3851
C 53.4921 35.7278 27.3561
H 53.3388 34.7925 27.8526
C 54.6484 36.5074 28.0145
H 53.7447 35.6365 26.2907
H 54.2492 -1.92813 28.9722
H 54.8684 -1.3265 27.3967
C 55.8849 35.6159 28.164
H 55.6373 34.6923 28.6324
C 57.0208 36.4128 28.8771
H 56.2345 35.296 27.2202
H 56.6725 36.6539 29.8596
H 57.1454 -1.42128 28.378
C 58.3601 35.5816 29.0713
H 58.1169 34.5972 29.5059
C 59.5563 36.2055 30.0298
H 58.8124 35.5184 28.085
H 59.0846 36.2845 30.992
H 59.714 -1.54888 29.7471
C 60.8567 35.3744 30.0988
H 60.673 34.3326 30.2266
C 61.9255 35.8204 31.0031
H 61.3039 35.4165 29.0781
H 62.4738 36.685 30.6663
H 62.7624 35.0449 30.9974
C 61.3882 36.1166 32.395
C 60.6369 -1.61456 34.2764
C 60.5872 35.7556 34.5208
C 61.071 35.0813 33.3784
C 61.192 -1.35873 32.9797
H 61.3027 -0.364417 32.4307
H 60.9223 33.9878 33.2632
H 60.2704 -0.945594 35.0251
H 60.1304 35.2111 35.4247
He 61.1965 36.2876 33.6112
Fe 62.5774 36.2605 33.9307
C 62.7831 -1.97383 35.7218
C 63.891 35.9389 35.4547
C 64.6316 36.5759 34.3965
C 64.0429 -0.976676 33.9587
C 65.9588 36.1998 33.9752
C 62.9181 -0.783704 34.8649
C 67.332 35.9043 33.6296
C 68.7425 35.6225 33.319
C 69.6135 34.6921 33.9637
C 70.9266 34.7932 33.4578
C 70.8505 35.7033 32.3398
C 69.5147 36.2604 32.3284
H 62.0751 36.6055 36.5486
H 64.1951 35.0216 36.0043
H 62.3657 0.166907 35.0437
H 71.7299 35.9723 31.7634
H 69.1029 -1.81564 31.5707
H 71.8495 34.2885 33.7949
H 69.3247 34.1008 34.8221
H 64.3934 -0.227804 33.2146
He 63.8263 -1.57751 35.033
He 69.9979 35.5725 33.1958
Fe 70.4405 36.6458 34.0918
C 72.2765 -1.71542 34.8662
C 71.3266 -1.14515 35.7559
C 72.1515 -1.00992 33.5944
C 70.5076 -0.199852 35.0386
C 71.0456 -0.0638311 33.7185
H 71.3284 -1.41155 36.759
H 69.6094 0.295373 35.5134
H 73.0683 36.3204 35.1428
H 70.7657 0.690074 32.9717
H 72.7909 -1.1527 32.7656
He 71.4859 -0.8114 34.616
S 43.0432 -0.963951 35.9936
C 44.548 -0.257683 36.6935
C 45.3301 0.548515 35.5963
H 45.1825 -0.974339 37.2278
H 44.4211 0.469803 37.5201
H 45.4305 -0.197378 34.7769
C 46.7798 0.889665 36.0614
H 44.6856 1.42226 35.3332
H 47.2319 -0.0394446 36.3984
H 46.7944 1.62702 36.8054
C 47.6123 1.48236 34.8532
H 47.7654 0.745693 34.0313
C 48.9822 1.91355 35.3026
H 46.9914 2.25586 34.4072
H 49.5747 1.08509 35.6371
H 48.9435 2.6625 36.0402
C 49.74 2.86527 34.212
H 49.5927 2.51775 33.1848
C 51.2206 2.98373 34.537
H 49.1909 3.78656 34.1561
H 51.4452 3.24983 35.5715
H 51.6374 3.97443 34.1883
C 52.0663 1.84884 33.9175
H 53.1409 1.95169 34.3401
C 52.0906 1.8885 32.3046
H 51.6792 0.932188 34.3494
H 52.5596 2.767 31.9798
H 51.0353 2.01945 31.9969
C 52.7964 0.78947 31.4753
H 52.5571 1.06302 30.4526
C 52.1724 -0.599082 31.6241
H 53.9147 0.854846 31.5475
H 52.3003 -1.0215 32.6412
H 52.7248 -1.21428 31.026
C 50.6871 -0.685496 31.3197
H 50.1514 0.195664 31.6875
C 50.1515 -1.9728 31.9887
H 50.5004 -0.587806 30.2689
H 50.4613 36.667 33.0655
H 50.6702 35.9473 31.5149
C 48.6228 36.5726 31.7712
H 48.0966 -1.35058 32.2042
C 48.0734 35.2547 32.2282
H 48.487 36.6718 30.7111
H 48.1805 35.1636 33.3107
H 48.7141 34.4433 31.9269
C 46.5556 35.1945 31.9923
C 44.2756 35.3245 32.3122
C 44.4936 34.5103 31.1312
C 45.8887 34.3402 31.031
C 45.5807 35.7736 32.8375
H 45.7733 36.4703 33.6237
H 46.3191 33.7103 30.2172
H 43.3332 35.6358 32.7078
H 43.6947 34.2383 30.4373
He 45.3611 35.256 31.72
Fe 45.3316 33.8057 33.006
C 44.4638 32.1525 33.6267
C 45.8211 32.0142 33.2589
C 46.5908 32.635 34.2622
C 45.6669 33.4796 35.0606
C 48.0482 32.564 34.4659
C 44.2933 33.0791 34.6498
C 49.4363 32.6358 34.6036
C 50.8166 32.8858 34.7571
C 51.7411 32.168 35.5815
C 53.0483 32.8326 35.3794
C 52.874 33.8512 34.3248
C 51.4652 33.9348 33.9899
H 43.6856 31.6794 33.1273
H 46.316 31.4105 32.5761
H 43.3726 33.4127 35.1526
H 53.7023 34.4623 33.907
H 51.0171 34.5376 33.2599
H 54.0056 32.5578 35.8008
H 51.4579 31.331 36.1768
H 45.9492 34.2014 35.8504
He 45.4009 32.5517 34.234
He 51.976 33.2062 34.9135
Fe 51.8877 34.1643 36.0806
C 50.952 35.9741 36.2456
C 52.3451 36.1431 36.2213
C 50.661 35.1548 37.4618
C 52.945 35.4817 37.3498
C 51.9293 34.9165 38.1299
H 52.8377 -1.96968 35.4753
H 54.0103 35.4697 37.5268
H 50.1623 36.3074 35.5023
H 51.9563 34.2367 38.9904
H 49.6426 34.8291 37.7503
He 51.7273 35.2753 36.9861
S 43.1222 34.9992 38.0474
C 44.3268 35.5374 39.1659
C 45.7373 34.8831 38.9794
H 44.0491 35.1599 40.1156
H 44.3405 36.6036 39.2327
H 46.1895 35.2308 38.0388
C 45.85 33.3391 39.0548
H 46.2302 35.3923 39.7856
H 45.1007 32.8452 38.3851
H 45.6705 32.9835 40.0701
C 47.3021 32.9421 38.6951
H 47.5459 33.322 37.6918
C 47.5575 31.4369 38.6299
H 47.9162 33.438 39.4269
H 46.9258 31.0644 37.755
H 47.0759 30.9146 39.4761
C 49.0501 31.0724 38.3682
H 49.228 30.0622 38.0718
C 50.0627 31.482 39.4653
H 49.3181 31.4658 37.4286
H 49.7058 31.2286 40.5177
H 50.1976 32.5775 39.3915
C 51.496 30.8619 39.3029
H 51.3913 29.7963 38.9117
C 52.357 30.8255 40.6103
H 52.0931 31.325 38.5608
H 51.8883 30.0751 41.2426
H 52.316 31.8262 41.1257
C 53.7551 30.304 40.3058
H 53.7851 29.2622 40.0909
C 54.8002 30.5326 41.4809
H 54.139 30.6793 39.3704
H 54.4099 29.9557 42.2763
H 54.777 31.5947 41.8766
C 56.1571 30.0514 40.9986
H 56.1736 29.0803 40.4562
C 57.2243 30.2065 42.0779
H 56.5471 30.7911 40.2547
H 56.9122 29.4425 -1.86774
H 57.1133 31.0991 -2.10623
C 58.6121 29.8411 41.5794
H 58.7021 28.9603 41.0325
C 59.6468 29.604 -2.03204
H 59.0669 30.5975 40.9414
H 60.5851 29.2484 42.288
H 59.2457 28.8843 -1.40581
C 60.0832 30.7873 -1.12405
C 61.1942 32.7254 -0.408331
C 60.4814 32.1251 0.752139
C 59.8349 30.9426 0.313884
C 60.9428 31.8522 -1.53077
H 61.1002 31.9932 42.2147
H 59.1891 30.4187 0.983943
H 61.6233 33.7021 -0.489612
H 60.3285 32.5467 1.69003
He 60.4816 31.7063 -0.416432
Fe 61.9088 30.8824 -0.108853
C 62.0024 28.9675 0.255084
C 63.2194 29.3333 -0.390949
C 63.9173 30.2823 0.471602
C 63.025 30.6176 1.52086
C 65.282 30.7871 0.243898
C 61.9286 29.67 1.47111
C 66.6476 31.1282 0.233291
C 68.0692 31.5207 0.384678
C 68.8066 32.4405 -0.411258
C 70.1141 32.668 0.232063
C 70.1031 31.8637 1.42973
C 68.8055 31.1557 1.54651
H 61.3075 28.3404 -0.256117
H 63.5731 28.9204 -1.32541
H 61.0808 29.5643 2.17488
H 70.91 31.8499 2.1366
H 68.6236 30.4772 2.38926
H 70.8894 33.3495 -0.143878
H 68.3109 33.0579 -1.16055
H 63.1752 31.3273 2.37359
He 62.8786 29.7381 0.654211
He 69.3199 31.6791 0.472697
Fe 70.1113 30.6679 -0.19385
C 71.405 29.5239 -1.4558
C 71.36 29.0466 -0.127623
C 71.9029 30.8808 -1.38398
C 71.7476 30.076 0.799911
C 72.1317 31.2351 0.000667566
H 71.062 28.0608 0.213404
H 71.9168 29.8387 1.83057
H 71.2786 28.9848 -2.33537
H 72.6724 32.0788 0.378226
H 72.1554 31.5313 -2.18989
He 71.4884 30.2788 -0.386497
S 43.3921 26.8759 5.13053
C 45.004 26.4888 4.37323
C 46.2558 27.1147 5.10414
H 44.9893 27.0199 3.38048
H 45.1814 25.3871 4.26659
H 46.0786 28.2122 5.12856
C 47.519 26.5218 4.4241
H 46.2792 26.886 6.18363
H 47.4114 26.5017 3.33298
H 47.6429 25.5113 4.79775
C 48.7544 27.4397 4.86865
H 48.7856 28.4094 4.39896
C 50.0774 26.7063 4.54948
H 48.7601 27.6079 5.898
H 50.0874 26.4237 3.5104
H 50.0303 25.8043 5.09802
C 51.3697 27.5957 4.88877
H 51.3878 28.5496 4.39943
C 52.6876 26.7944 4.84885
H 51.3369 27.9173 5.91615
H 52.8652 26.447 3.82285
H 52.6854 25.9413 5.52706
C 53.9288 27.7018 5.06191
H 53.8496 28.5186 4.31878
C 55.3062 26.9601 4.93534
H 53.7498 28.1835 5.99013
H 55.6272 26.6649 3.97531
H 55.0835 25.9471 5.36139
C 56.432 27.6486 5.77795
H 56.0254 28.4415 6.47624
C 57.4572 28.2876 4.90384
H 57.0031 26.9504 6.31209
H 56.9484 28.7478 4.01472
H 58.0382 27.496 4.60161
C 58.2718 29.3129 5.6471
H 57.6188 30.1882 6.00547
C 59.3809 30.0409 4.848
H 58.6887 28.8161 6.52853
H 58.9472 30.4649 3.8551
H 60.1128 29.2537 4.63527
C 60.0607 31.0922 5.596
H 59.3454 31.846 5.98296
C 61.1959 31.731 4.80237
H 60.5019 30.6257 6.49048
H 60.7466 32.4447 4.07674
H 61.6889 31.0246 4.19707
C 62.1954 32.4695 5.71714
C 63.1599 34.1517 7.01632
C 64.0861 33.0783 6.95257
C 63.4516 32.0266 6.23923
C 62.0216 33.8023 6.17528
H 61.1385 34.3913 6.11613
H 63.7757 31.0308 6.08325
H 63.2695 35.1333 7.41594
H 65.0064 32.9217 7.39994
He 63.0521 33.1642 6.3258
Fe 63.8201 33.7012 5.14996
C 63.2156 35.4956 4.36779
C 64.508 35.7694 5.02816
C 65.4769 34.823 4.52418
C 64.865 34.2782 3.37633
C 66.8938 34.7 4.89897
C 63.445 34.6018 3.28408
C 68.2728 34.6449 5.27611
C 69.6705 34.3794 5.61783
C 70.3203 35.2566 6.52805
C 71.6935 34.7348 6.70072
C 71.7974 33.5788 5.87778
C 70.5621 33.355 5.19082
H 62.276 35.8997 4.6219
H 64.746 36.3273 5.92055
H 62.7307 34.2508 2.55206
H 72.6515 32.9363 5.77194
H 70.3305 32.4408 4.59396
H 72.4774 35.1775 7.30382
H 69.9331 36.1226 6.96412
H 65.3943 33.6293 2.69218
He 64.2987 35.0085 4.06627
He 70.8332 34.2555 5.92043
Fe 71.3428 35.2867 4.83039
C 71.6413 -1.66899 3.71371
C 70.2482 36.5947 3.71072
C 72.4577 35.9878 3.38323
C 70.2994 35.3149 3.10989
C 71.6628 34.8699 2.97165
H 69.2993 -1.68519 3.94425
H 69.5158 34.591 2.96082
H 71.967 -0.588396 3.92186
H 71.9732 33.7884 2.82068
H 73.5425 36.0982 3.39246
He 71.3017 35.8947 3.407
S 42.8523 24.0105 18.2113
C 44.1122 24.2435 16.9226
C 45.2384 25.1304 17.4397
H 43.5718 24.7845 16.0897
H 44.5625 23.3192 16.6694
H 44.9188 26.1678 17.5637
C 46.4967 25.184 16.5471
H 45.5205 24.7664 18.4259
H 46.1488 25.4994 15.563
H 46.8463 24.1907 16.4304
C 47.7259 25.9608 17.0854
H 47.5255 27.0248 17.2467
C 48.8065 25.9031 16.0663
H 48.0781 25.5302 17.9893
H 48.3873 26.3905 15.1402
H 49.0688 24.8471 15.8394
C 50.0198 26.7294 16.4679
H 49.7725 27.6616 16.947
C 50.9248 27.0596 15.3183
H 50.6001 26.1827 17.1669
H 50.3096 27.4992 14.4702
H 51.2909 26.1135 14.9674
C 52.0569 27.995 15.598
H 51.7204 29.042 15.8879
C 53.0285 28.1967 14.4014
H 52.6548 27.5885 16.506
H 52.4597 28.6303 13.5258
H 53.4966 27.3004 14.0869
C 54.1074 29.2765 14.787
H 53.6184 30.2271 14.7059
C 55.3045 29.3305 13.8532
H 54.4159 29.0627 15.8693
H 55.0033 29.3773 12.7997
H 55.8936 28.4073 13.9548
C 56.2686 30.5035 14.2834
H 55.7032 31.4284 14.5149
C 57.5126 30.7039 13.314
H 56.6967 30.1524 15.1581
H 57.1867 30.598 12.305
H 58.1457 29.8345 13.4624
C 58.269 31.9928 13.4427
H 57.8728 32.8343 12.8852
C 59.7311 31.9069 13.06
H 58.2491 32.1805 14.524
H 60.2382 31.1814 13.6304
H 60.133 32.8652 13.303
C 60.0251 31.6645 11.5833
C 59.953 30.9632 9.37679
C 60.5351 32.259 9.39101
C 60.5888 32.6741 10.7898
C 59.6947 30.5519 10.7362
H 59.1666 29.6239 10.9516
H 60.8858 33.6525 11.1401
H 59.7418 30.3636 8.45651
H 60.7589 32.894 8.57812
He 60.0614 31.6967 10.3632
Fe 61.6878 30.9081 10.4634
C 61.7456 29.0128 10.0013
C 62.9178 29.6889 9.48525
C 63.8165 30.052 10.5653
C 63.0218 29.8169 11.7124
C 65.2273 30.592 10.4922
C 61.8821 29.0665 11.3848
C 66.5842 31.1133 10.3508
C 67.9489 31.682 10.4095
C 68.6992 32.1664 9.23884
C 69.8734 32.8501 9.61461
C 69.8488 32.8835 11.0968
C 68.6812 32.1441 11.5692
H 60.8721 28.678 9.4484
H 63.1138 29.8549 8.38269
H 61.1098 28.6162 12.0151
H 70.6266 33.2961 11.7479
H 68.4169 32.0724 12.5934
H 70.6875 33.1927 8.96371
H 68.4451 32.076 8.18678
H 63.2501 30.0488 12.7206
He 62.6233 29.7166 10.6312
He 69.1308 32.0914 10.3765
Fe 70.0064 31.0312 10.3324
C 71.7587 30.619 9.23596
C 71.2463 29.408 9.81066
C 72.0693 31.545 10.2741
C 71.2527 29.6039 11.2625
C 71.7861 30.9133 11.5195
H 70.9781 28.4498 9.34587
H 70.8895 28.8763 12.0142
H 72.0201 30.8636 8.17487
H 71.94 31.3734 12.5005
H 72.5435 32.5182 10.1013
He 71.7929 30.2705 10.3605
S 43.0245 28.1789 19.0938
C 44.0715 28.0767 20.5521
C 45.5264 27.7576 20.1096
H 43.5633 27.2546 21.0935
H 43.9819 28.9867 21.1568
H 45.9343 26.9772 20.7743
C 46.4576 28.9398 20.3897
H 45.7665 27.4744 19.1272
H 46.2839 29.2628 21.4503
H 46.1079 29.7051 19.6278
C 47.8908 28.6569 19.9714
H 48.2389 28.091 20.8049
C 48.7661 29.9057 19.9612
H 48.0298 28.1424 19.0816
H 48.6906 30.4447 20.8691
H 48.3022 30.5408 19.2406
C 50.2761 29.5167 19.7133
H 50.5255 28.9767 20.6337
C 51.2236 30.681 19.3665
H 50.2812 28.8113 18.8766
H 51.1254 31.438 20.1425
H 50.9045 31.1163 18.3994
C 52.6194 30.1332 19.2117
H 53.0022 29.7108 20.1472
C 53.5444 31.2416 18.8486
H 52.5395 29.2819 18.5131
H 53.4887 32.0836 19.5911
H 53.1642 31.742 17.937
C 54.969 30.6734 18.7383
H 55.1869 30.2956 19.6961
C 56.0337 31.706 18.3627
H 55.106 29.7019 18.1038
H 56.0758 32.4598 19.1775
H 55.682 32.2709 17.4745
C 57.4064 31.0502 18.1488
H 57.6757 30.3662 18.9807
C 58.5049 32.1835 17.8807
H 57.4104 30.4997 17.1922
H 58.642 32.7819 18.8203
H 57.9888 32.9028 17.1662
C 59.9103 31.637 17.498
H 60.1986 30.772 18.1599
C 61.162 32.6568 17.6267
H 59.8381 31.2165 16.4753
H 61.3673 32.6696 18.646
H 60.9059 33.6114 17.2197
C 62.4121 32.2173 16.8702
C 64.6915 31.8427 16.4511
C 63.9362 31.0357 15.491
C 62.5212 31.3355 15.7065
C 63.7643 32.5837 17.3051
H 64.0548 33.2815 18.0654
H 61.6659 30.9268 15.1729
H 65.7528 31.8896 16.5232
H 64.2872 30.3771 14.7226
He 63.5126 31.9025 16.2309
Fe 63.4551 33.0267 15.304
C 62.9773 34.98 14.7699
C 64.1646 34.8581 15.4609
C 65.1173 34.1319 14.7029
C 64.406 33.6183 13.568
C 66.5754 34.0465 14.8499
C 63.0892 34.2013 13.5753
C 68.016 34.1006 14.8937
C 69.4266 34.1773 14.8002
C 70.3284 33.0643 14.8729
C 71.6735 33.5136 14.7518
C 71.6818 34.9524 14.6124
C 70.2732 35.343 14.5817
H 62.1138 35.4897 15.135
H 64.3371 35.3006 16.4142
H 62.3795 34.0533 12.7945
H 72.5864 35.5787 14.6521
H 69.8086 36.3558 14.4859
H 72.5877 32.8723 14.8035
H 70.0061 32.1162 15.1443
H 64.8117 32.9926 12.8256
He 64.0718 34.4881 14.2981
He 70.6937 34.2338 14.9444
Fe 70.7806 34.3983 16.3829
C 71.8438 33.0192 17.391
C 70.5836 33.0519 18.0512
C 72.4052 34.2995 17.5846
C 70.2674 34.3815 18.4635
C 71.4719 35.133 18.2089
H 69.9368 32.1655 18.1629
H 69.3134 34.5803 18.948
H 72.3953 32.1482 16.9693
H 71.6739 36.2117 18.5214
H 73.3743 34.6078 17.3417
He 71.2764 33.9753 17.953
S 43.219 23.6282 21.8633
C 44.8665 22.863 21.6546
C 45.7406 24.1507 21.4574
H 44.8978 22.3197 20.7287
H 45.232 22.2926 22.453
H 45.3577 24.7186 20.6219
C 47.2166 23.7429 21.086
H 45.7856 24.7096 22.3645
H 47.3643 23.9193 19.9604
H 47.4542 22.7193 21.4142
C 48.2252 24.7473 21.6545
H 48.0002 25.7237 21.3354
C 49.606 24.5123 21.2064
H 48.146 24.7756 22.7676
H 49.6892 24.7047 20.1554
H 49.8159 23.4663 21.4301
C 50.647 25.4205 22.036
H 50.2917 26.4743 21.9101
C 52.0803 25.285 21.5223
H 50.661 25.163 23.179
H 52.0631 25.5895 20.4364
H 52.5061 24.2779 21.5898
C 52.8999 26.2282 22.3723
H 52.5024 27.25 22.3733
C 54.3419 26.39 21.8811
H 52.9451 25.8667 23.4553
H 54.2827 26.632 20.8063
H 54.7889 25.4641 21.7359
C 55.2108 27.4211 22.6263
H 54.7984 28.3932 22.5424
C 56.594 27.5876 22.1357
H 55.1417 27.3426 23.6858
H 56.603 28.278 21.2886
H 56.9078 26.5982 21.6137
C 57.5562 28.0647 23.307
H 57.0292 29.0303 23.6028
C 59.0381 28.153 22.8636
H 57.4387 27.2943 24.0731
H 59.027 28.8297 21.9844
H 59.3296 27.1043 22.5375
C 59.9578 28.7515 23.8899
H 59.3426 29.294 24.6537
C 60.9732 29.7157 23.3524
H 60.3813 27.9674 24.5348
H 61.298 30.3981 24.208
H 60.4999 30.4494 22.6748
C 62.1639 28.9752 22.7323
C 64.2599 27.8901 22.5967
C 63.6588 27.9775 21.2983
C 62.4149 28.6253 21.4153
C 63.3328 28.5376 23.5025
H 63.5054 28.7661 24.5586