11280
Atoms. Timestep: 13200000
S 43.328 26.832 40.4827
C 44.6891 27.456 41.3849
C 45.8654 27.899 40.5266
H 45.0515 26.6749 42.0788
H 44.315 28.336 41.9243
H 46.3218 27.1023 39.9318
C 46.9296 28.5488 41.4482
H 45.6214 28.6063 39.8174
H 47.2277 27.9054 42.3066
H 46.5381 29.4139 41.8728
C 48.2377 28.9978 40.7747
H 48.6487 28.2389 40.0961
C 49.2919 29.8134 41.5527
H 47.9467 29.6898 39.9863
H 49.4905 29.3706 -2.22879
H 48.8177 30.7988 41.7062
C 50.684 30.1241 40.9307
H 51.2926 29.218 40.842
C 51.5318 30.9181 41.9372
H 50.6426 30.5309 39.943
H 51.5963 30.3136 -1.88311
H 51.149 31.8916 42.2498
C 52.9415 31.1114 41.5057
H 53.3141 30.0894 41.373
C 53.7871 32.0089 -2.26612
H 52.9822 31.6558 40.5177
H 53.7471 31.5522 -1.31562
H 53.3272 32.9953 -2.1981
C 55.298 32.1069 42.127
H 55.8435 31.2123 42.2407
C 56.1647 33.161 -1.87322
H 55.3292 32.3396 41.0848
H 56.2566 32.7445 -0.851115
H 55.6167 34.1207 -1.66381
C 57.5206 33.2665 42.2477
H 57.9403 32.2758 41.9275
C 58.5693 34.0195 -1.73677
H 57.2644 33.5498 41.2117
H 58.4183 33.7163 -0.711345
H 58.312 35.1438 -1.72994
C 59.9022 33.6157 -2.2756
H 59.8378 32.527 -2.36746
C 61.0336 34.0335 -1.25655
H 59.9496 34.0231 41.449
H 61.1128 33.4239 -0.365222
H 60.9029 35.0164 -0.835694
C 62.3871 33.7991 -1.89802
C 64.501 32.9221 -2.29142
C 64.2965 33.9516 41.479
C 62.9539 34.4619 41.6887
C 63.3582 32.7993 -1.46588
H 63.0431 32.0268 -0.758735
H 62.4204 35.2219 41.1709
H 65.3795 32.326 -2.28519
H 65.0102 34.2639 40.7267
He 63.4325 33.5458 42.2865
Fe 64.1488 34.7184 -1.36201
C 63.4284 36.1541 -0.00499734
C 64.8441 35.8745 0.299395
C 65.6048 36.0421 -0.881882
C 64.6803 36.629 -1.89611
C 67.0228 35.8467 -1.12737
C 63.3009 36.633 -1.33902
C 68.3988 35.6917 -1.41991
C 69.8286 35.6199 -1.5753
C 70.5392 34.4149 -1.41929
C 71.9382 34.6456 -1.64681
C 72.1166 36.0804 -1.86497
C 70.7963 36.6553 -1.82082
H 62.6541 36.0424 0.745532
H 65.2441 35.5688 1.23415
H 62.3304 -1.74136 -1.76585
H 73.0715 36.5388 -1.93849
H 70.5356 -1.0649 -1.99632
H 72.7278 33.8897 -1.64303
H 70.1708 33.4413 -1.24648
H 65.0515 -1.86954 41.8681
He 64.3656 36.2836 -0.763256
He 71.0225 35.3999 -1.79761
Fe 71.1589 35.5772 -0.0534188
C 71.5664 34.9272 1.91636
C 70.2098 35.2101 1.73563
C 72.2933 36.0546 1.43603
C 70.025 36.6107 1.33977
C 71.3051 -1.67237 1.0611
H 69.405 34.5541 1.81389
H 69.1463 -1.60319 1.21214
H 72.098 34.0493 2.24345
H 71.5184 -0.692159 0.688575
H 73.3611 36.1418 1.34898
He 71.1498 36.046 1.7373
S 43.2723 29.9459 -0.437236
C 44.3355 30.7278 0.831758
C 45.6883 30.9476 0.195072
H 44.2771 30.1177 1.7879
H 43.9187 31.6636 1.19173
H 46.2335 30.0766 0.0259302
C 46.6985 31.8144 1.02937
H 45.571 31.4901 -0.756851
H 47.0012 31.2038 1.83923
H 46.2662 32.5762 1.61488
C 47.9833 32.2435 0.294914
H 48.6483 31.4497 0.028302
C 48.8126 33.2542 1.15585
H 47.6534 32.6862 -0.609278
H 49.1008 32.7611 2.14509
H 48.2773 34.1303 1.3339
C 50.1055 33.6008 0.466593
H 50.3965 32.7152 -0.0723921
C 51.0308 34.0861 1.51033
H 49.9075 34.3596 -0.273072
H 51.0951 33.4238 2.3661
H 50.6814 35.032 1.86445
C 52.4148 34.391 0.887482
H 52.9069 33.5006 0.458254
C 53.3908 34.913 1.973
H 52.4187 35.0928 0.0521435
H 53.2972 34.3977 2.96354
H 53.1242 35.9207 2.41683
C 54.8195 34.9015 1.48115
H 55.0623 33.8817 1.10039
C 55.8577 35.3573 2.53307
H 54.9342 35.6063 0.666126
H 55.8647 34.6692 3.4
H 55.5269 36.334 2.88338
C 57.2775 35.4594 1.96286
H 57.5464 34.4561 1.65547
C 58.4389 36.0065 2.78167
H 57.1726 36.1051 1.05177
H 58.5327 35.3171 3.6522
H 58.1407 -1.68183 3.01797
C 59.8084 35.9761 2.21262
H 59.9858 34.9932 1.84838
C 60.8275 36.5038 3.14584
H 59.75 36.6099 1.25808
H 61.7833 36.3695 2.67545
H 60.9649 35.966 4.08974
C 60.6626 -0.839521 3.62927
C 60.6575 1.44137 3.87163
C 59.9013 0.878939 4.97289
C 59.9986 -0.506986 4.86829
C 60.9941 0.352672 2.98487
H 61.314 0.284787 1.93359
H 59.5286 -1.14453 5.64674
H 60.8925 2.51686 3.80766
H 59.4485 1.43525 5.78142
He 60.2292 0.297153 3.95504
Fe 61.9119 0.106874 4.89085
C 62.046 -1.22296 6.33411
C 63.2847 -1.20824 5.57622
C 63.9788 0.0430173 5.7566
C 63.0748 0.863258 6.52318
C 65.3084 0.393637 5.3253
C 61.939 0.0818215 6.95172
C 66.6595 0.649138 4.88079
C 68.0018 1.02247 4.43994
C 68.7622 0.292165 3.55922
C 69.7399 1.11142 2.92387
C 69.7448 2.34949 3.61931
C 68.7767 2.23772 4.63375
H 61.4155 -2.06121 6.61586
H 63.7961 -1.99769 4.95999
H 61.1504 0.467448 7.60555
H 70.3179 3.2733 3.48982
H 68.4529 3.12175 5.22559
H 70.392 0.84801 2.06942
H 68.4679 -0.65123 3.2097
H 63.0954 1.89625 6.79485
He 62.9465 -0.346385 6.30453
He 68.953 1.45037 3.77461
Fe 70.2534 0.993535 4.8899
C 71.9898 1.40873 3.95736
C 71.8861 0.0388864 4.3795
C 71.9052 2.13863 5.20803
C 71.7231 -0.0974531 5.78447
C 71.6824 1.23162 6.35644
H 72.0632 -0.825908 3.68291
H 71.7263 -1.04124 6.28189
H 72.2944 1.78328 2.99944
H 71.709 1.49991 7.43374
H 72.3402 3.1187 5.19984
He 72.0494 0.948606 5.17948
S 43.1994 -0.823092 13.888
C 44.5522 -0.798528 15.068
C 45.741 0.0578039 14.3914
H 44.8341 -1.82834 15.2937
H 44.2804 -0.438647 16.0472
H 45.7664 -0.230504 13.378
C 47.082 -0.0582705 15.1318
H 45.4012 1.08287 14.3806
H 47.2735 -1.16351 15.215
H 46.9785 0.401488 16.1041
C 48.3079 0.60539 14.4091
H 48.6149 0.215406 13.3473
C 49.5621 0.376007 15.3019
H 48.038 1.66185 14.3271
H 49.6651 -0.637637 15.6469
H 49.3835 1.039 16.114
C 50.8141 0.792353 14.5037
H 50.6385 0.691288 13.4572
C 52.0609 -0.106866 14.6235
H 51.2375 1.76442 14.7283
H 51.9097 -1.04872 14.1238
H 52.2092 -0.272923 15.6561
C 53.3549 0.490223 14.0182
H 53.0674 0.722832 13.0033
C 54.4989 -0.422886 13.9791
H 53.6703 1.4303 14.525
H 54.2118 -1.3073 13.3893
H 54.7015 -0.755286 15.0409
C 55.7928 0.188458 13.3256
H 55.6417 0.483078 12.2464
C 56.937 -0.872516 13.4484
H 56.0478 1.18772 13.8116
H 56.7084 -1.6892 12.7065
H 56.9502 -1.31863 14.3642
C 58.3204 -0.126297 13.1298
H 58.3343 0.356534 12.0978
C 59.6708 -0.860554 13.2612
H 58.4324 0.77648 13.6629
H 59.8671 -1.1173 14.3021
H 60.5656 -0.151036 12.9223
C 59.6676 36.6682 12.2852
H 58.8898 35.9929 12.7837
C 60.947 35.8075 12.3607
H 59.3198 -1.85841 11.2157
H 60.7221 35.0338 11.692
H 61.037 35.3093 13.3088
C 62.2264 36.5108 12.0027
C 63.8765 -1.10646 10.8572
C 64.3482 -1.41144 12.1855
C 63.3215 36.6348 12.8786
C 62.5052 -1.55244 10.8039
H 61.8473 -1.49737 9.95485
H 63.4452 36.2432 13.9444
H 64.4293 -0.641336 10.0883
H 65.2891 -1.03785 12.5842
He 63.2672 -1.65264 11.7938
Fe 63.9648 35.7391 11.047
C 63.3144 34.8805 9.42469
C 64.4828 35.6749 9.146
C 65.5864 35.1941 9.9438
C 65.1195 34.0604 10.623
C 66.9092 35.7664 10.0299
C 63.7238 33.8681 10.3634
C 68.2984 36.2476 10.0217
C 69.6616 -2.05836 9.85706
C 70.8324 35.8817 9.89973
C 71.908 -1.96797 9.49749
C 71.465 -0.622552 9.35057
C 70.0458 -0.725877 9.47874
H 62.2837 35.0545 9.07401
H 64.3792 36.543 8.56115
H 63.1458 33.1364 10.8188
H 72.0802 0.144928 8.99592
H 69.4495 0.212921 9.41001
H 72.9334 36.5353 9.30458
H 70.8921 34.842 10.2044
H 65.7308 33.4369 11.3292
He 64.55 34.6193 9.64949
He 70.7737 -1.71859 9.44826
Fe 71.1173 -1.36389 11.1734
C 70.5077 -0.488333 13.0004
C 71.9789 -0.593663 12.8373
C 70.0027 -1.81849 12.8482
C 72.317 -1.96018 12.7472
C 71.1037 36.0271 12.8432
H 72.7225 0.179719 12.9036
H 73.2607 36.3685 12.6754
H 70.0907 0.477673 13.1954
H 71.0167 34.9332 12.9846
H 68.9723 36.6673 12.9573
He 71.1665 -1.46559 12.9445
S 43.0932 2.51924 19.2706
C 44.3835 2.5883 20.6215
C 44.9243 1.19397 20.8437
H 44.0649 3.06488 21.5882
H 45.1604 3.27793 20.2356
H 44.3469 0.7313 21.5967
C 46.3561 1.05425 21.2146
H 44.6798 0.598984 19.9577
H 46.4873 0.0895876 21.6749
H 46.5484 1.77858 22.0403
C 47.3248 1.22056 20.0297
H 47.2696 0.284044 19.4135
C 48.7619 1.6438 20.4641
H 47.0482 2.07004 19.3698
H 49.1668 0.923774 21.1733
H 48.7942 2.55744 20.985
C 49.7402 1.76033 19.2591
H 49.6164 1.01519 18.4645
C 51.1816 1.8339 19.718
H 49.5874 2.69249 18.7864
H 51.5658 0.917643 20.0355
H 51.1438 2.55919 20.5505
C 52.1913 2.09898 18.5892
H 52.0343 1.38526 17.7291
C 53.66 1.9894 19.1041
H 52.0591 3.12227 18.2322
H 53.7606 0.974401 19.5165
H 53.8769 2.71155 19.9107
C 54.6345 2.135 17.8622
H 54.2134 1.42301 17.1535
C 56.054 1.76461 18.238
H 54.5818 3.15682 17.4775
H 55.9442 0.771094 18.6183
H 56.3133 2.25675 19.1218
C 57.046 1.88858 17.0182
H 56.7522 1.16522 16.2765
C 58.5959 1.71393 17.3597
H 56.8526 2.85669 16.5581
H 58.6998 2.36577 18.2457
H 59.2246 2.132 16.5704
C 58.9395 0.295692 17.5991
H 58.4393 -0.0850254 18.4891
C 60.4519 0.0611707 17.7592
H 58.6449 -0.225468 16.6729
H 60.5037 -1.00515 17.6211
H 60.783 0.241572 18.777
C 61.4462 0.605345 16.722
C 63.04 0.852181 15.07
C 62.8783 2.09037 15.7961
C 61.829 1.97699 16.7089
C 62.1936 -0.096082 15.6562
H 62.0094 -1.08588 15.2984
H 61.5012 2.78845 17.3321
H 63.7602 0.645133 14.2604
H 63.3462 2.97501 15.4949
He 62.3222 1.06919 16.0038
Fe 63.536 0.754702 17.0156
C 63.877 -0.995478 17.7472
C 65.0484 -0.784365 16.9851
C 65.653 0.382543 17.5035
C 64.8817 0.836721 18.5979
C 66.9573 0.878755 17.2193
C 63.7617 -0.00420667 18.7605
C 68.2643 1.31298 16.9798
C 69.6708 1.64245 16.815
C 70.3115 1.77756 15.5478
C 71.7585 1.91276 15.7815
C 71.9358 1.87353 17.2083
C 70.6468 1.71095 17.8631
H 63.1084 -1.77061 17.5807
H 65.4091 -1.54757 16.3632
H 62.9429 0.159592 19.452
H 72.9422 1.94208 17.6533
H 70.4184 1.64202 18.9284
H 72.514 2.18875 15.0069
H 69.8319 1.83313 14.6149
H 65.0683 1.68773 19.1888
He 64.7863 -0.215317 18.0294
He 70.8345 1.82768 16.6597
Fe 71.0236 0.0622994 16.5294
C 70.389 -1.96627 16.5124
C 70.1739 -1.32088 17.8321
C 71.7983 -1.80906 16.2455
C 71.4352 -0.828104 18.3488
C 72.4108 -1.04678 17.2972
H 69.1905 -1.24822 18.3344
H 71.689 -0.334376 19.2254
H 69.6754 36.3909 15.8344
H 73.4458 -0.863437 17.478
H 72.3136 36.4744 15.4234
He 71.2566 -1.28728 17.1799
S 42.9142 30.0739 29.5008
C 44.0847 30.3004 28.1018
C 45.5194 30.6465 28.504
H 43.8644 31.107 27.4064
H 44.1346 29.3783 27.5818
H 45.6265 31.5965 29.0854
C 46.421 30.7706 27.2791
H 45.8866 29.8627 29.1783
H 46.1581 31.5877 26.5935
H 46.3598 29.9327 26.677
C 47.8805 31.1029 27.5687
H 47.8047 32.0763 27.9865
C 48.9088 31.0493 26.4012
H 48.2277 30.3361 28.302
H 48.8207 30.1757 25.8066
H 49.8497 30.8208 26.8522
C 48.9739 32.3028 25.5217
H 48.0076 32.3463 24.9996
C 50.1305 32.3436 24.5595
H 48.9973 33.1699 26.1059
H 49.8777 33.1295 23.9022
H 50.2699 31.4177 24.0068
C 51.5093 32.6849 25.2829
H 51.2884 33.4117 26.0701
C 52.6835 33.1771 24.2937
H 51.8609 31.8108 25.8693
H 52.4528 34.062 23.7208
H 52.7548 32.3662 23.5992
C 53.9881 33.3307 24.9935
H 53.8962 33.8667 25.9154
C 55.1085 33.7744 24.0813
H 54.1546 32.2867 25.1884
H 54.7324 34.6498 23.4871
H 55.368 32.9447 23.3822
C 56.4067 34.0505 24.8485
H 56.1548 34.7961 25.596
C 57.5935 34.4625 24.0199
H 56.6331 33.0282 25.3128
H 57.2723 35.4431 23.6382
H 57.5905 33.7591 23.1761
C 58.8667 34.4612 24.9182
H 58.7518 35.0961 25.7827
C 60.0573 34.9702 24.194
H 59.0643 33.396 25.1209
H 60.92 34.9605 24.8301
H 59.8225 35.9396 23.9101
C 60.3183 34.2339 22.8322
C 61.0624 32.5921 21.2747
C 60.5344 33.6713 20.512
C 60.0333 34.6245 21.4852
C 60.9692 32.9615 22.6714
H 61.2836 32.3592 23.4635
H 59.4942 35.5075 21.2254
H 61.6142 31.7811 20.877
H 60.5238 33.6896 19.4614
He 60.3537 33.568 21.8187
Fe 62.1402 34.2567 21.6439
C 62.1969 36.1749 22.0091
C 63.4715 35.7863 22.5432
C 64.2217 35.206 21.4512
C 63.4101 35.1719 20.2955
C 65.5984 34.7533 21.5146
C 62.1807 35.9023 20.5887
C 66.9343 34.257 21.3887
C 68.2526 33.6331 21.4156
C 68.9515 33.2995 22.6129
C 70.1979 32.5984 22.2411
C 70.3409 32.6305 20.8078
C 69.1526 33.3621 20.2911
H 61.4706 -1.99824 22.572
H 64.0208 35.9157 23.5134
H 61.3375 36.195 19.9609
H 71.0897 32.16 20.2051
H 69.0709 33.611 19.2407
H 70.8744 32.0597 22.9371
H 68.6904 33.3844 23.6684
H 63.5922 34.7464 19.2971
He 63.1238 35.7094 21.3679
He 69.3712 33.1655 21.4708
Fe 70.3096 34.4337 21.5292
C 71.5597 35.2749 20.1424
C 72.2423 34.2661 20.9321
C 71.0105 36.2426 21.0266
C 72.1397 34.6812 22.2802
C 71.3841 35.9246 22.3164
H 72.8206 33.4398 20.4917
H 72.6363 34.1149 23.0715
H 71.5485 35.3086 19.1022
H 71.0333 36.5221 23.188
H 70.4039 -1.67402 20.7161
He 71.879 35.4071 21.2581
S 43.1029 36.0267 33.3017
C 43.9663 35.1436 31.9737
C 45.4964 35.4346 32.0245
H 43.6556 35.5186 30.9897
H 43.6833 34.1331 31.9951
H 45.6247 36.5192 32.2471
C 46.2723 35.0956 30.7666
H 45.9088 34.8685 32.9124
H 45.8069 35.5267 29.91
H 46.1457 34.0546 30.4543
C 47.7709 35.4431 30.8917
H 47.8567 36.5327 31.1165
C 48.6904 35.241 29.6614
H 48.2778 35.0217 31.7931
H 48.1801 35.7182 28.8662
H 48.772 34.1832 29.3882
C 50.0921 35.9046 29.8858
H 50.012 -1.84002 30.2645
C 50.9717 35.8927 28.6796
H 50.6497 35.3848 30.6994
H 50.5409 36.5018 27.8996
H 51.2607 34.8736 28.2663
C 52.3603 36.522 29.1451
H 52.1624 -1.20235 29.4202
C 53.483 36.4947 28.0084
H 52.7336 36.1072 30.1159
H 52.9963 -1.96599 27.0857
H 53.9297 35.4714 27.7891
C 54.6734 -1.31461 28.2578
H 54.2853 -0.461235 28.6743
C 55.3687 -0.885399 26.9568
H 55.4381 -1.74205 28.9255
H 54.6088 -0.388944 26.4461
H 55.7322 -1.70072 26.3382
C 56.3868 0.229607 27.1264
H 55.9438 1.07407 27.6546
C 57.0191 0.582872 25.7721
H 57.1473 -0.156183 27.8348
H 56.2307 0.682942 25.0056
H 57.7817 -0.132207 25.4838
C 57.8726 1.90335 25.8186
H 58.3868 2.07435 24.8889
C 58.9693 1.9063 26.8172
H 57.1332 2.74935 26.0081
H 58.5357 1.92373 27.8468
H 59.452 2.92227 26.777
C 60.1243 0.822161 26.8327
C 61.2051 -1.13333 27.4165
C 61.7195 -0.7012 26.1938
C 60.9894 0.421224 25.7045
C 60.3193 -0.116642 27.8995
H 59.8708 -0.133857 28.8693
H 61.0586 0.922357 24.7289
H 61.4747 -1.97801 28.0395
H 62.4565 -1.22734 25.5809
He 60.6202 -0.315731 26.6345
Fe 62.0756 0.733181 27.4639
C 62.1551 1.40613 29.297
C 63.4794 0.780642 29.0592
C 64.1777 1.46104 28.0695
C 63.3343 2.52897 27.5894
C 65.5359 1.07551 27.6463
C 62.1114 2.53663 28.3547
C 66.8363 0.571247 27.2465
C 68.124 0.0430094 26.7427
C 68.7817 -1.12702 27.1756
C 69.8131 -1.47892 26.258
C 69.8244 -0.40043 25.211
C 68.7691 0.522453 25.5304
H 61.2482 1.12867 29.8565
H 63.8811 -0.119617 29.491
H 61.2734 3.18331 28.197
H 70.3812 -0.403645 24.3466
H 68.5317 1.38196 24.8762
H 70.547 36.4177 26.4578
H 68.4313 -1.69833 27.9864
H 63.6556 3.26417 26.8867
He 63.2137 1.89278 28.6677
He 69.0315 -0.556262 26.1187
Fe 70.3988 0.352412 26.9424
C 71.8705 1.06577 28.2875
C 71.907 1.71845 26.9869
C 72.0472 -0.335333 28.1149
C 72.245 0.7016 26.0386
C 72.2396 -0.574803 26.6834
H 71.8809 2.76151 26.7075
H 72.4604 0.79433 25.0089
H 71.8092 1.5643 29.3004
H 72.4974 -1.53891 26.2154
H 72.0492 -1.03559 28.9181
He 72.1419 0.511958 27.2531
S 43.09 36.2524 38.6911
C 44.0965 35.2036 37.6873
C 45.1868 36.1531 37.0786
H 43.3564 34.8528 36.9345
H 44.6025 34.3952 38.2535
H 44.6895 -1.84545 36.4405
C 46.2054 35.4422 36.2014
H 45.7021 -2.02328 37.8832
H 45.6721 34.8746 35.4357
H 46.7491 34.6498 36.8241
C 47.1399 36.2857 35.393
H 46.6305 36.6469 34.493
C 48.3362 35.4523 34.9956
H 47.6482 -1.69342 35.9572
H 47.9325 34.7669 34.2422
H 48.7392 34.8467 35.7498
C 49.4232 36.3212 34.3178
H 49.0137 -2.03681 33.2812
C 50.6767 35.5077 34.0175
H 49.6269 -1.6349 34.9964
H 50.4189 34.6756 33.4104
H 51.0001 34.975 34.9743
C 51.8353 36.2239 33.2151
H 52.4301 35.458 32.8215
C 52.7789 -1.62736 34.0107
H 51.4652 -1.95657 32.3403
H 53.1015 36.607 34.9799
H 52.3218 -0.694288 34.3362
C 53.999 -1.15891 33.099
H 53.6684 -0.843657 32.1355
C 55.0398 36.5282 33.0696
H 54.3836 -0.264018 33.6462
H 54.5085 35.598 32.7273
H 55.3162 36.2987 34.1541
C 56.2728 -1.90902 32.191
H 56.829 35.9797 32.2565
C 57.0538 -0.643763 32.5505
H 56.019 -1.90286 31.2071
H 56.472 0.281297 32.4848
H 57.8776 -0.539812 31.8545
C 57.7344 -0.715231 33.9352
H 57.963 0.311844 34.3057
C 58.9118 -1.66836 34.0501
H 56.9381 -1.0818 34.5908
H 58.5658 36.0351 33.9401
H 59.226 -1.77018 35.0863
C 60.0364 -1.4565 33.1188
C 61.6209 -1.88518 31.4833
C 61.8979 -0.589054 32.0262
C 60.9056 -0.274645 33.0246
C 60.4063 36.4399 32.05
H 59.7789 35.5508 31.7971
H 60.8064 0.624737 33.6301
H 62.2116 36.4065 30.6406
H 62.7484 -0.0294499 31.8394
He 61.1023 -1.42287 32.5533
Fe 62.0357 36.644 33.341
C 62.1646 34.5834 33.6566
C 63.3204 34.8786 32.9611
C 64.0916 35.8864 33.656
C 63.4123 36.1923 34.871
C 65.465 36.3929 33.315
C 62.193 35.3905 34.8515
C 66.8421 36.651 32.9221
C 68.2324 -1.92588 32.512
C 69.0094 35.9538 31.6685
C 70.1322 36.6227 31.12
C 70.0456 -0.790738 31.6045
C 69.0126 -0.713889 32.6195
H 61.4539 33.8599 33.2859
H 63.5892 34.4243 31.9961
H 61.3639 35.5032 35.5145
H 70.7053 -0.0233699 31.256
H 68.6763 0.0896676 33.2184
H 70.8795 36.3038 30.3473
H 68.7458 34.8942 31.5087
H 63.6335 -1.74985 35.5906
He 63.181 35.3177 34.0329
He 69.4066 -1.67915 32.075
Fe 70.3145 36.5743 33.1571
C 71.9944 35.5447 32.4592
C 71.8641 35.323 33.8509
C 72.249 -1.81575 32.2271
C 71.8987 36.6134 34.4881
C 72.1451 -1.15978 33.468
H 71.92 34.3562 34.2991
H 71.764 36.6844 35.5847
H 72.115 34.8107 31.6846
H 72.3507 -0.16515 33.5522
H 72.5801 -1.29295 31.3836
He 72.1107 36.4051 33.3281
S 43.1806 34.5474 -1.56968
C 44.4852 34.3607 41.8357
C 45.8808 34.8416 42.2259
H 44.0501 34.941 41.0706
H 44.4868 33.3171 41.4336
H 45.6418 35.8484 -2.19075
C 46.8653 34.8608 41.0734
H 46.2988 34.3925 -1.66887
H 46.673 35.7108 40.4776
H 46.6652 33.9538 40.5348
C 48.329 34.8632 41.3983
H 48.5254 35.9193 41.7108
C 49.1085 34.6525 40.0513
H 48.6744 34.0857 42.1027
H 48.8471 35.3969 39.208
H 48.8836 33.668 39.5978
C 50.6227 34.583 40.2007
H 51.0344 35.3496 40.8449
C 51.325 34.8723 38.8932
H 50.9891 33.6831 40.7135
H 51.2146 35.9092 38.4956
H 50.8308 34.274 38.1496
C 52.8356 34.6704 38.8272
H 53.2852 35.2455 39.6031
C 53.2937 35.2062 37.5007
H 53.0664 33.6139 38.9317
H 53.121 36.2643 37.561
H 52.8008 34.7218 36.6627
C 54.8273 35.0442 37.1814
H 55.0174 33.965 37.0175
C 55.8013 35.5884 38.1661
H 55.0601 35.4226 36.1891
H 55.6008 35.4541 39.2025
H 55.8258 36.6721 37.9485
C 57.2114 35.0639 37.7966
H 57.4653 34.0616 38.2574
C 58.2518 36.023 38.3132
H 57.2485 34.8961 36.7286
H 58.1399 35.9337 39.3957
H 57.9829 -1.77663 37.9503
C 59.6018 35.7136 37.8563
H 59.7471 34.6594 38.0773
C 60.78 36.4903 38.5033
H 59.7158 35.764 36.7919
H 61.6065 35.9869 38.0383
H 60.8902 36.3982 39.5622
C 60.5591 -0.863708 38.1282
C 60.487 1.24633 37.0454
C 59.8531 1.34938 38.3166
C 59.8212 0.0646181 38.9413
C 61.0279 -0.130148 36.997
H 61.5944 -0.525633 36.1989
H 59.2526 -0.297249 39.8525
H 60.4476 2.06104 36.3499
H 59.3646 2.23608 38.6865
He 60.5946 0.491949 38.0527
Fe 61.841 0.828719 38.4893
C 62.237 0.225235 40.2958
C 63.2891 -0.19783 39.4688
C 64.0372 1.04505 39.0708
C 63.235 2.15402 39.4611
C 65.3668 1.03731 38.5535
C 62.1219 1.66689 40.2716
C 66.7771 1.03311 38.1407
C 68.1506 1.07261 37.7156
C 68.7185 0.0515211 36.8436
C 69.8049 0.708652 36.1624
C 69.9488 2.03575 36.666
C 69.0004 2.29341 37.746
H 61.5859 -0.435192 40.8116
H 63.6654 -1.20456 39.341
H 61.4262 2.30935 40.7793
H 70.6193 2.82369 36.2339
H 68.79 3.25525 38.1774
H 70.369 0.333083 35.4155
H 68.218 -0.877686 36.5724
H 63.4982 3.19409 39.2448
He 62.8101 0.946903 39.4711
He 69.0886 1.2094 37.0342
Fe 70.2439 0.693795 38.162
C 71.9654 -0.41982 38.0329
C 71.7335 -0.0914634 39.4381
C 72.0752 0.844708 37.4054
C 71.7312 1.29921 39.571
C 71.8807 1.90863 38.3094
H 71.6562 -0.86287 40.2026
H 71.6358 1.6709 40.5821
H 72.0759 -1.44649 37.6179
H 72.061 2.96055 38.1035
H 72.3264 1.03992 36.3537
He 72.0577 0.684596 38.5597
S 43.0868 23.1897 1.82278
C 44.384 22.5084 0.679737
C 45.8032 23.0401 1.09724
H 44.1621 22.9499 -0.241949
H 44.4002 21.4468 0.670394
H 45.7167 24.0632 1.47309
C 46.8768 22.9075 -0.000719157
H 46.0881 22.4986 1.9987
H 46.5045 22.8634 -0.939054
H 47.2682 21.9511 0.383356
C 47.9841 23.8794 0.251763
H 47.6422 24.8345 -0.122925
C 49.2826 23.6295 -0.608573
H 48.2901 24.048 1.33055
H 48.888 23.4971 -1.65253
H 49.7864 22.7385 -0.219086
C 50.2516 24.8316 -0.710011
H 49.6844 25.7108 -1.03595
C 51.4343 24.6914 -1.57505
H 50.4165 25.2025 0.320023
H 51.1883 24.2887 42.2172
H 51.9399 23.8277 -1.11444
C 52.2929 25.8824 -1.69772
H 52.0386 26.4544 42.2247
C 53.7494 25.7052 -1.89628
H 52.0049 26.5007 -0.836129
H 53.9294 25.4258 41.8196
H 53.9837 24.8687 -1.24742
C 54.5748 26.9401 -1.42195
H 54.2571 27.75 -2.0933
C 56.0895 26.7907 -1.43825
H 54.2507 27.3197 -0.472264
H 56.5268 26.0579 -2.17678
H 56.3425 26.2875 -0.501907
C 56.9298 28.0843 -1.60065
H 56.8294 28.4063 42.1078
C 58.3889 28.0185 -1.16928
H 56.4781 28.903 -1.05803
H 59.0094 27.4838 -1.85995
H 58.4499 27.4651 -0.209961
C 59.0001 29.3997 -1.03999
H 59.0634 29.8526 -2.06988
C 60.3976 29.4185 -0.489658
H 58.4146 30.0547 -0.402841
H 60.4999 29.0884 0.545251
H 60.6736 30.443 -0.438807
C 61.4811 28.7013 -1.25761
C 62.8033 26.9926 -2.17093
C 63.1954 28.2148 41.915
C 62.4002 29.2577 -2.21539
C 61.8476 27.2991 -1.11493
H 61.3189 26.5433 -0.535374
H 62.2741 30.3487 42.3424
H 63.1972 25.9643 -2.32949
H 63.8828 28.1097 41.1048
He 62.266 27.9791 -1.9979
Fe 63.5258 28.3405 -0.828061
C 63.5182 27.5678 1.08222
C 64.7172 27.2927 0.417231
C 65.3831 28.5719 0.0652491
C 64.5359 29.6106 0.485843
C 66.7825 28.7934 -0.40962
C 63.4357 28.978 1.20531
C 68.1662 28.9281 -0.703343
C 69.6188 29.0485 -1.08856
C 70.6239 28.0085 -1.04655
C 71.8326 28.491 -1.65404
C 71.523 29.8053 -2.20549
C 70.2087 30.1629 -1.77836
H 62.8816 26.7881 1.48573
H 65.1325 26.3197 0.333979
H 62.6352 29.4863 1.73246
H 72.2985 30.3861 42.0828
H 69.8384 31.1934 -1.98915
H 72.7548 27.9268 -1.54192
H 70.561 27.0301 -0.609286
H 64.7318 30.662 0.299895
He 64.5063 28.3933 0.801007
He 70.721 29.042 -1.61058
Fe 71.2298 29.6945 -0.0835152
C 70.5994 31.4335 0.824615
C 72.0114 31.2474 0.85086
C 70.035 30.2905 1.41973
C 72.2794 30.0477 1.6065
C 71.0335 29.3679 1.85234
H 72.6897 31.9482 0.397038
H 73.2588 29.7291 1.81451
H 69.997 32.2524 0.383521
H 70.9292 28.355 2.18627
H 69.0156 30.0738 1.49409
He 71.2096 30.4207 1.20271
S 43.2061 27.5673 2.24472
C 44.232 26.3681 1.39579
C 45.584 26.8831 0.825359
H 43.5818 25.9642 0.601909
H 44.2996 25.5057 2.0633
H 46.0365 26.0797 0.235495
C 46.5714 27.5081 1.82551
H 45.4934 27.6468 0.135648
H 46.4969 26.8871 2.69179
H 46.1584 28.4053 2.20762
C 48.0059 27.6598 1.26636
H 48.3857 26.6251 1.15385
C 48.9093 28.4674 2.20915
H 47.8542 28.0578 0.184434
H 48.9792 27.8743 3.11117
H 48.3576 29.444 2.48796
C 50.202 28.7877 1.47205
H 50.6864 27.9108 1.20665
C 51.0727 29.5648 2.40361
H 49.9488 29.4155 0.610614
H 51.1328 28.7782 3.21047
H 50.5437 30.4859 2.7596
C 52.4895 29.9546 1.8805
H 52.8742 29.0412 1.3964
C 53.468 30.5445 2.92515
H 52.4028 30.6674 1.03472
H 53.4952 29.733 3.73288
H 52.9718 31.3923 3.30936
C 54.865 30.8348 2.41031
H 55.2634 30.0555 1.84722
C 55.8942 31.2844 3.47239
H 54.8084 31.5873 1.62999
H 55.6959 30.6127 4.30295
H 55.6351 32.2876 3.88271
C 57.3408 31.1532 2.93897
H 57.4319 30.1335 2.52645
C 58.3933 31.4295 4.00051
H 57.3378 31.8511 2.08479
H 58.3515 30.7085 4.84324
H 58.1361 32.3382 4.4507
C 59.751 31.5877 3.43553
H 59.956 30.7302 2.86134
C 60.764 31.9416 4.54138
H 59.5385 32.428 2.69782
H 60.5117 31.1639 5.24669
H 60.5777 32.8899 5.03122
C 62.2002 31.7583 4.03346
C 64.2704 30.7563 3.81014
C 64.2508 31.8996 2.9364
C 62.966 32.6092 3.20321
C 62.9686 30.5836 4.3654
H 62.4142 29.7976 4.89592
H 62.4961 33.4516 2.78648
H 65.0747 30.0135 3.96465
H 65.0049 32.2576 2.2958
He 63.4343 31.6832 3.88507
Fe 63.9445 32.2373 4.99435
C 63.3085 32.913 6.968
C 64.5915 32.2826 7.02505
C 65.4494 32.9312 6.07285
C 64.7938 34.0527 5.40647
C 66.8407 32.6524 5.85715
C 63.4665 33.9707 5.92839
C 68.2474 32.3873 5.61837
C 69.6439 32.0647 5.36724
C 70.5875 31.6028 6.39545
C 71.8488 31.3886 5.79112
C 71.7671 31.7359 4.40208
C 70.3903 32.1842 4.154
H 62.4679 32.6922 7.63551
H 64.8536 31.3744 7.64228
H 62.5707 34.5559 5.72617
H 72.5748 31.7859 3.72555
H 70.0568 32.6641 3.23559
H 72.7673 31.0401 6.22559
H 70.4397 31.4947 7.42635
H 65.2564 34.6785 4.64887
He 64.3818 33.3837 6.42312
He 70.7938 31.8036 5.23826
Fe 71.2393 33.3713 5.52312
C 70.3272 34.3822 7.03885
C 70.254 35.1351 5.82617
C 71.7162 34.2486 7.30756
C 71.57 35.3477 5.32318
C 72.5026 34.827 6.26575
H 69.363 35.4068 5.26807
H 71.8297 35.8007 4.37722
H 69.5689 33.921 7.65261
H 73.6042 34.6317 6.18194
H 72.2088 33.6475 8.12949
He 71.2509 34.9403 6.46521
S 43.232 34.4725 4.18336
C 44.1914 32.9777 4.73355
C 45.6727 33.0207 4.36916
H 43.9222 32.1721 4.08724
H 43.8641 32.8468 5.77142
H 45.9588 31.9915 4.22221
C 46.5827 33.5267 5.50532
H 45.7127 33.6569 3.42387
H 46.3665 32.8618 6.35907
H 46.269 34.4958 5.8011
C 48.0753 33.4494 5.25056
H 48.4338 32.7651 4.4415
C 48.7326 33.2148 6.60205
H 48.3237 34.3937 4.90092
H 48.4268 32.194 6.88982
H 48.3945 33.8804 7.40906
C 50.2599 33.3357 6.33815
H 50.781 33.0475 7.25089
C 50.8346 34.752 5.86674
H 50.6356 32.5577 5.57525
H 50.6099 35.4889 6.64703
H 50.4678 35.1529 4.94628
C 52.3446 34.6203 5.48406
H 52.5688 33.8941 4.77631
C 53.1572 34.5751 6.81037
H 52.7174 35.5439 5.00987
H 53.2035 33.6275 7.26381
H 52.6149 35.2406 7.50098
C 54.6769 34.8953 6.4704
H 54.9146 34.5702 5.47313
C 55.6944 34.0556 7.33336
H 54.8083 35.9818 6.57935
H 55.3069 32.9873 7.47794
H 55.7009 34.3342 8.35942
C 57.1143 34.1501 6.78847
H 57.0413 33.9186 5.73048
C 58.2018 33.3237 7.50758
H 57.2496 35.1944 6.76936
H 58.3835 33.66 8.53878
H 59.0877 33.5218 6.90211
C 57.7695 31.9058 7.77437
H 57.0183 31.8675 8.53991
C 58.9798 31.0015 8.20194
H 57.3151 31.6085 6.86102
H 59.8366 31.2582 7.60757
H 58.736 30.0134 7.86452
C 59.3739 31.0413 9.66511
C 60.1996 31.7615 11.7513
C 59.5409 30.5049 11.9386
C 59.0627 30.0517 10.6471
C 60.0332 32.1025 10.3786
H 60.1368 33.006 9.82032
H 58.5943 29.0995 10.3645
H 60.5281 32.4068 12.5602
H 59.3931 29.9116 12.854
He 59.6425 31.1101 10.8319
Fe 61.1158 30.5339 10.7527
C 61.3297 28.795 9.78664
C 62.5325 29.4955 9.53491
C 63.348 29.5586 10.7719
C 62.4321 29.1509 11.8037
C 64.7533 29.9571 10.8516
C 61.2067 28.6317 11.2561
C 66.1754 30.3542 10.8925
C 67.5859 30.8738 10.8764
C 68.2024 31.3322 9.63722
C 69.2773 32.237 9.98606
C 69.328 32.323 11.4448
C 68.3647 31.4406 11.9917
H 60.6259 28.4917 9.03598
H 62.7607 29.7189 8.5001
H 60.4345 28.1518 11.7766
H 70.0419 32.9552 12.0366
H 68.1276 31.2969 12.9958
H 69.7985 32.827 9.32807
H 67.9336 31.1295 8.59373
H 62.81 29.0931 12.8235
He 62.2607 28.958 10.6095
He 68.6362 31.5486 10.7317
Fe 69.8982 30.4846 10.8063
C 71.3383 29.0174 11.307
C 71.485 30.2207 12.1494
C 71.4465 29.5431 9.93664
C 71.8192 31.3398 11.2502
C 71.7693 30.9728 9.8832
H 71.5545 30.2258 13.2171
H 72.2366 32.2346 11.6373
H 71.1461 28.0257 11.5878
H 72.081 31.473 8.92107
H 71.386 28.9557 9.04344
He 71.4887 30.1605 10.9203
S 42.9672 36.3412 18.0631
C 44.2922 35.491 18.8144
C 45.6562 36.0499 18.2211
H 44.2819 34.414 18.624
H 44.2387 35.6006 19.837
H 45.7006 36.1203 17.1104
C 46.9792 35.4848 18.6789
H 45.5436 -1.62461 18.475
H 46.9808 34.4452 18.3724
H 46.991 35.432 19.7655
C 48.1877 36.1825 18.1048
H 48.3478 35.6978 17.0702
C 49.46 36.0149 18.9184
H 48.03 -1.53213 18.0054
H 49.6051 34.9833 19.1931
H 49.5055 36.4769 19.9328
C 50.7055 36.3754 18.0745
H 50.8663 35.7398 17.2299
C 52.0443 36.4262 18.8858
H 50.6091 -1.35032 17.8312
H 52.2847 35.483 19.361
H 51.9517 -1.65095 19.7226
C 53.2144 -1.7871 18.0116
H 53.0846 36.5113 17.0778
C 54.6196 36.453 18.5139
H 53.0564 -0.667723 17.8722
H 54.5658 35.4497 18.7829
H 55.0436 -1.84933 19.4485
C 55.6778 36.565 17.4244
H 55.2211 36.0276 16.5473
C 57.0107 35.8398 17.8361
H 55.912 -1.10256 17.2937
H 56.6535 34.7865 18.0499
H 57.4575 36.2112 18.7477
C 57.9948 35.5789 16.6524
H 57.6964 34.7189 15.9902
C 59.3672 34.9863 17.1704
H 57.9894 36.4478 15.9345
H 59.1862 34.0777 17.7288
H 59.8482 35.6877 17.9251
C 60.4698 34.7649 16.12
H 59.9043 34.1754 15.3549
C 61.6347 34.0806 16.7789
H 60.6337 35.7336 15.6278
H 61.3108 33.1016 17.2093
H 61.9184 34.5698 17.7288
C 62.8216 33.7999 15.9242
C 64.1556 32.8373 14.3497
C 65.0286 33.3945 15.3349
C 64.2007 33.95 16.3952
C 62.8011 33.1621 14.6554
H 61.9303 33.0544 14.0999
H 64.5778 34.3991 17.2963
H 64.5365 32.2703 13.5127
H 66.1415 33.5059 15.3234
He 63.8263 33.5767 15.2785
Fe 63.8331 32.0257 16.0948
C 63.1769 30.0983 15.7392
C 64.5352 30.2582 15.2718
C 65.4133 30.556 16.3399
C 64.5942 30.6408 17.5064
C 66.8231 30.7933 16.2622
C 63.2346 30.3651 17.1717
C 68.2332 30.9676 16.2328
C 69.6738 31.1381 16.2463
C 70.4644 31.612 15.1888
C 71.843 31.6698 15.5784
C 71.9157 31.2407 16.9534
C 70.5358 30.9001 17.3555
H 62.3119 29.8627 15.1469
H 64.82 30.2251 14.1981
H 62.327 30.3334 17.8118
H 72.8277 31.1707 17.5069
H 70.202 30.5866 18.3228
H 72.759 31.9518 15.0575
H 70.1688 31.7648 14.1735
H 64.9272 30.8618 18.5127
He 64.1698 30.4248 16.3922
He 70.9166 31.3113 16.2607
Fe 71.1205 29.7365 15.8295
C 72.3465 28.1452 15.7181
C 71.331 28.0526 14.7972
C 71.6725 28.2526 16.9981
C 70.0258 28.05 15.4617
C 70.2127 28.2519 16.8559
H 71.5684 27.9475 13.7306
H 69.0648 27.8913 15.1066
H 73.3913 28.0507 15.5903
H 69.4859 28.4675 17.6495
H 72.2807 28.3022 17.9103
He 71.1744 28.0165 16.0402
S 43.157 33.4032 23.8092
C 44.5128 33.3254 22.6403
C 45.4126 32.0286 22.9069
H 45.133 34.2473 22.7325
H 44.0688 33.218 21.6613
H 46.0104 32.0353 23.8608
C 46.3731 31.6387 21.7968
H 44.7769 31.1924 23.1222
H 45.7324 31.5443 20.9199
H 46.8163 30.6706 21.9498
C 47.4726 32.6874 21.6245
H 47.1304 33.6128 21.0728
C 48.696 32.0809 20.9991
H 47.8498 33.0636 22.5802
H 49.0428 31.1264 21.392
H 49.5934 32.6948 20.9628
C 48.5431 31.6526 19.4965
H 47.7326 30.8983 19.3103
C 49.9448 31.6742 18.7371
H 48.0678 32.4682 19.0114
H 50.7209 31.0917 19.3687
H 50.3943 32.6732 18.6607
C 49.917 31.0846 17.2631
H 49.4219 30.1612 17.2273
C 51.3507 31.079 16.6071
H 49.2653 31.6967 16.6768
H 51.9347 30.2967 17.0646
H 51.9664 32.0687 16.7033
C 51.2559 30.4686 15.1536
H 52.2837 30.2384 14.8209
C 50.5699 31.3777 14.1648
H 50.8436 29.4308 15.0908
H 51.1934 32.3552 14.1363
H 49.6114 31.6973 14.4419
C 50.5115 30.9498 12.6757
H 50.026 31.9446 12.3159
C 49.5395 29.7996 12.2671
H 51.4913 30.8923 12.166
H 49.1718 29.9616 11.2503
H 48.6552 29.8183 12.8497
C 50.1177 28.4284 12.327
H 51.1163 28.3622 11.9186
C 49.2372 27.3111 11.6964
H 50.009 28.195 13.4577
H 49.8225 26.3879 11.6661
H 49.1722 27.5003 10.6623
C 47.7843 27.0871 12.1551
C 45.9189 26.3456 13.2135
C 45.4973 27.4455 12.4254
C 46.6592 27.9882 11.8435
C 47.3318 26.1087 13.1196
H 47.8757 25.2907 13.65