LAMMPS data file via write_data, version 21 Jul 2020, timestep = 4570000000

26250 atoms
4 atom types

-500.0 5500.0 xlo xhi
-500.0 5500.0 ylo yhi
-500.0 5500.0 zlo zhi

Masses

1 7200
2 1500
3 960000
4 60000

Pair Coeffs # lj/cut

1 10 17.818
2 10 62.3629
3 10 80.1809
4 10 44.545

Atoms # full

11015 113 1 0.0 1886.9694937295615 -410.7396333198152 -453.1001009846609 0 0 0
11014 113 1 0.0 1898.0445625777327 -427.13925963887743 -450.3066837392526 0 0 0
11016 113 1 0.0 1875.8796971778345 -394.35373612023466 -455.8987333018733 0 0 0
11017 113 1 0.0 1864.785659311617 -377.93100093757886 -458.71692291834137 0 0 0
24962 316 4 0.0 154.62546169399843 938.4617129684224 -484.3316256971914 2 3 -2
25531 398 4 0.0 2106.799388254422 1192.1099074655097 -486.8789458658349 0 2 4
25530 398 3 0.0 2168.7569989375693 1177.260613734251 -457.9027219083317 0 2 4
8428 86 2 0.0 2108.0640595993013 1208.3195354684308 -498.6554393873875 0 0 0
8392 86 1 0.0 1984.3890850405548 1293.3180671382343 -487.3115329295477 0 0 0
8394 86 1 0.0 2018.7446161789571 1273.7433954722994 -493.3743035806947 0 0 0
8393 86 1 0.0 2001.550584353984 1283.5143518522684 -490.3479239413349 0 0 0
8395 86 1 0.0 2035.9089900397146 1263.944417454033 -496.40769419779764 0 0 0
8396 86 1 0.0 2053.0820178315075 1254.1499309129717 -499.4377180871518 0 0 0
8344 86 1 0.0 2122.0448150294847 1268.1464578368152 -483.7036022813392 0 0 0
8345 86 1 0.0 2122.1478829424373 1285.8492993014163 -474.43152745049565 0 0 0
8343 86 1 0.0 2121.965480191538 1250.4162702282658 -492.9850183558168 0 0 0
8391 86 1 0.0 1967.2155151644085 1303.1303882196594 -484.3045905639525 0 0 0
8382 86 1 0.0 1953.395439966535 1303.7694668688418 -498.73985684136795 0 0 0
8381 86 1 0.0 1950.0347806114132 1312.910628626177 -481.2998759423767 0 0 0
8400 86 1 0.0 1967.3032279432623 1320.8307675823437 -475.0321711091624 0 0 0
8418 86 1 0.0 1944.9511431272056 1321.9036869816407 -498.40928693672225 0 0 0
8409 86 1 0.0 1953.5419165377766 1332.463420049142 -483.7431948645931 0 0 0
8401 86 1 0.0 1984.5701522719262 1328.744794869696 -468.7720798999647 0 0 0
8402 86 1 0.0 2001.834923731325 1336.6901298536811 -462.50792339548616 0 0 0
8403 86 1 0.0 2019.0993066792166 1344.6090062044218 -456.27230347547516 0 0 0
8346 86 1 0.0 2122.2502282631076 1303.577082430187 -465.136714631025 0 0 0
8347 86 1 0.0 2122.3128567343174 1321.2961410380265 -455.8718191891585 0 0 0
8410 86 1 0.0 1957.059339316513 1351.9798304832111 -486.19879414026883 0 0 0
8411 86 1 0.0 1960.5524317272107 1371.5015747087277 -488.6741254857383 0 0 0
8412 86 1 0.0 1964.0518905737292 1391.0469923484304 -491.11285529631255 0 0 0
8404 86 1 0.0 2036.3650161386336 1352.518635500029 -450.02228738940744 0 0 0
8413 86 1 0.0 1967.5556466108728 1410.5808418417485 -493.58033422528734 0 0 0
8414 86 1 0.0 1971.0737858485804 1430.1193128918974 -496.04294316741 0 0 0
8355 86 1 0.0 2067.6641614881078 1438.6096849259009 -453.608779320113 0 0 0
8415 86 1 0.0 1974.5808418532172 1449.6510955630456 -498.51601556225853 0 0 0
8360 86 1 0.0 1998.8738072138458 1496.652919094459 -497.1780813180716 0 0 0
8359 86 1 0.0 2012.6328522188396 1485.046321819511 -488.46294885488373 0 0 0
8358 86 1 0.0 2026.3778929929276 1473.4290504484043 -479.7429673451436 0 0 0
8356 86 1 0.0 2053.896435978388 1450.1938580513188 -462.30935133098313 0 0 0
8357 86 1 0.0 2040.1417535365092 1461.820504175227 -471.0459551958491 0 0 0
11012 113 1 0.0 1920.2346802669545 -459.9792249118895 -444.7151804112529 0 0 0
11011 113 1 0.0 1931.327584783084 -476.3703587052039 -441.9325647508282 0 0 0
11010 113 1 0.0 1942.428140306053 -492.76261221728265 -439.12611160190573 0 0 0
11013 113 1 0.0 1909.1494834222487 -443.56042115702195 -447.51048107669504 0 0 0
11018 113 1 0.0 1856.4801653199227 -373.04060837334674 -441.1853995798818 0 0 0
11019 113 1 0.0 1848.1654651411397 -368.1314531813677 -423.6657987925719 0 0 0
11020 113 1 0.0 1839.885081410301 -363.23656269644664 -406.1456287625344 0 0 0
11072 113 1 0.0 1875.1099039456708 -380.26839794874036 -441.73347064305875 0 0 0
11071 113 1 0.0 1885.468658069618 -382.5598663687773 -424.7961209495386 0 0 0
11070 113 1 0.0 1895.8016068896047 -384.869893908074 -407.82206145067073 0 0 0
25532 398 4 0.0 2136.896895443659 1136.8979589967917 -410.3871227011635 0 2 4
25534 398 4 0.0 2230.7263932575493 1162.4566754362484 -428.95201847112367 0 2 4
25533 398 4 0.0 2162.127325081636 1232.4936835062717 -415.46589707264553 0 2 4
8348 86 1 0.0 2122.4188688864383 1339.0079072413487 -446.6009603478894 0 0 0
8405 86 1 0.0 2053.6296634430346 1360.4612312316085 -443.7774160083207 0 0 0
8406 86 1 0.0 2070.8998843602753 1368.3695420528552 -437.5175969654749 0 0 0
8349 86 1 0.0 2122.5104625868153 1356.7156004179042 -437.31751067135576 0 0 0
8407 86 1 0.0 2088.1391291864925 1376.3165155161932 -431.25389436335786 0 0 0
8408 86 1 0.0 2105.425322576595 1384.231420117808 -425.0048917266021 0 0 0
8350 86 1 0.0 2122.6058809389306 1374.4356736584539 -428.02955767426755 0 0 0
8351 86 1 0.0 2122.6932348342098 1392.141654982378 -418.76016150460185 0 0 0
8354 86 1 0.0 2081.412351193611 1426.987291620154 -444.89774771950084 0 0 0
8352 86 1 0.0 2108.9321589543665 1403.7832957894884 -427.47482846455733 0 0 0
8353 86 1 0.0 2095.172930379153 1415.3770856421938 -436.1858135070895 0 0 0
11060 113 1 0.0 1972.6962489933298 -485.6110679703614 -374.0912195783031 0 0 0
11059 113 1 0.0 1971.9456510210089 -471.5137943408524 -359.9064492775068 0 0 0
11061 113 1 0.0 1973.4364885170294 -499.7100376708316 -388.2552632994804 0 0 0
11058 113 1 0.0 1971.1923077270305 -457.42285383233144 -345.7632802416859 0 0 0
11022 113 1 0.0 1823.2490869262683 -353.42093261089786 -371.1196659125885 0 0 0
11023 113 1 0.0 1814.9396180137173 -348.5158685461473 -353.59714806163464 0 0 0
11021 113 1 0.0 1831.5565035590123 -358.33295737994945 -388.6057730021821 0 0 0
11069 113 1 0.0 1906.1429581923646 -387.1922057908367 -390.86551889576066 0 0 0
11068 113 1 0.0 1916.4774350502698 -389.4897688655297 -373.8751432605405 0 0 0
11067 113 1 0.0 1926.8013294571008 -391.7867759886383 -356.92182999236894 0 0 0
11057 113 1 0.0 1970.4483557447718 -443.32109472745 -331.5777861921716 0 0 0
11056 113 1 0.0 1969.689444781192 -429.2365733404354 -317.38896285951756 0 0 0
11055 113 1 0.0 1968.9379085491566 -415.1422631043917 -303.2246908060288 0 0 0
11064 113 1 0.0 1957.8374657672832 -398.7155619977989 -306.03333066792163 0 0 0
11065 113 1 0.0 1947.5024023598187 -396.4213403122136 -322.98179159456953 0 0 0
11066 113 1 0.0 1937.136484559148 -394.1111432149793 -339.9459864586371 0 0 0
11024 113 1 0.0 1806.6303912230553 -343.6152822139048 -336.0613888407511 0 0 0
11026 113 1 0.0 1790.0467659538203 -333.7978441696908 -301.0208970028492 0 0 0
11025 113 1 0.0 1798.3199219365642 -338.71018199606266 -318.5474740807427 0 0 0
25552 401 4 0.0 1733.4948078251432 -233.8631191760641 -294.7883237528559 -3 1 -5
25556 401 4 0.0 1827.6575780199285 -230.6000079559642 -325.3624672892298 -3 1 -5
18743 192 1 0.0 1668.7199789087658 261.3076336839941 -296.5860249400109 0 1 0
18742 192 1 0.0 1651.6338891745675 251.09484156682285 -294.7289279987351 0 1 0
18744 192 1 0.0 1685.7980665221378 271.54919769554556 -298.45613188518894 0 1 0
18745 192 1 0.0 1702.8766771468322 281.78675636598985 -300.35189082214555 0 1 0
18746 192 1 0.0 1719.9641662856652 292.01775765637774 -302.2236986739693 0 1 0
18747 192 1 0.0 1737.0416900485573 302.23599378575045 -304.08260102661245 0 1 0
18805 192 1 0.0 1771.3494068657762 304.44850608813334 -299.69070565912267 0 1 0
18748 192 1 0.0 1754.142216511106 312.4774825345949 -305.96047796102687 0 1 0
18749 192 1 0.0 1771.218271312939 322.7233052660131 -307.8181030853539 0 1 0
11049 113 1 0.0 1965.3894200648904 -478.3714485932616 -268.7662785203589 0 0 0
11050 113 1 0.0 1964.6800971108876 -497.7049674234186 -263.68330718564664 0 0 0
11048 113 1 0.0 1966.081434282984 -459.0254478158876 -273.8441262963106 0 0 0
11039 113 1 0.0 1930.1261293219382 -419.5045333816577 -246.52094862769565 0 0 0
11038 113 1 0.0 1942.8125401356879 -413.3594127215386 -260.69594075018534 0 0 0
11047 113 1 0.0 1966.7767675676132 -439.70088493503704 -278.9152498657358 0 0 0
11046 113 1 0.0 1967.4687722525268 -420.3654665999596 -283.9850999054738 0 0 0
11037 113 1 0.0 1955.4989382230997 -407.20112222821865 -274.8749799328351 0 0 0
11027 113 1 0.0 1968.1787025673016 -401.0485452340495 -289.05711212237304 0 0 0
10979 113 1 0.0 1793.644249937768 -355.66065163254535 -256.24510880546205 0 0 0
10980 113 1 0.0 1799.5920253687061 -369.0307342881162 -242.61598353927144 0 0 0
11033 113 1 0.0 1856.3017296285202 -357.7629621065969 -285.7272855607273 0 0 0
11032 113 1 0.0 1874.9535648818448 -364.9567724484017 -286.27167341889964 0 0 0
11034 113 1 0.0 1837.6534745462066 -350.5482651937349 -285.1760790255184 0 0 0
11031 113 1 0.0 1893.5940661159386 -372.2014336556232 -286.8320347153624 0 0 0
11030 113 1 0.0 1912.2324111930077 -379.4100223267489 -287.3943615726437 0 0 0
11029 113 1 0.0 1930.8855191057864 -386.61443025059896 -287.9362381369953 0 0 0
11028 113 1 0.0 1949.5233312476444 -393.82169513198136 -288.501022886792 0 0 0
10977 113 1 0.0 1781.7258993604978 -328.9018351280161 -283.49766791081566 0 0 0
10978 113 1 0.0 1787.6771393491013 -342.28135649925406 -269.8687580939695 0 0 0
11036 113 1 0.0 1800.3676162211054 -336.1160820988462 -284.0519092204077 0 0 0
11035 113 1 0.0 1819.0021362297582 -343.3436966123397 -284.61732624872246 0 0 0
11073 113 2 0.0 1797.5454382286566 -317.47504201018194 -279.1611657365226 0 0 0
25557 401 4 0.0 1797.6960415728377 -303.1721278484484 -265.0413721170419 -3 1 -5
25551 401 3 0.0 1795.9343805807046 -233.19903242074477 -263.0146269024067 -3 1 -5
25554 401 4 0.0 1794.1528253301803 -163.28066398969702 -260.95455995919815 -3 1 -5
18790 192 1 0.0 1720.8572313601876 164.11680496346867 -245.30623787798993 0 1 0
18737 192 1 0.0 1601.6906949886786 200.38438086575636 -254.5038863318986 0 1 0
18738 192 1 0.0 1601.0484059225046 210.39481786493707 -271.8296018478533 0 1 0
18796 192 1 0.0 1617.5915338492018 212.36427152337814 -282.85751204327244 0 1 0
18795 192 1 0.0 1634.79493459893 204.31310448779692 -276.5978048818618 0 1 0
18793 192 1 0.0 1669.2478437294194 188.2290497132432 -264.07775382822604 0 1 0
18794 192 1 0.0 1652.0271013865095 196.27273865581114 -270.33737478843454 0 1 0
18792 192 1 0.0 1686.4404222185708 180.19054715151796 -257.82123963653197 0 1 0
18791 192 1 0.0 1703.6644412744772 172.14589539919362 -251.56454243041858 0 1 0
18799 192 1 0.0 1772.1065963942794 194.82223096060352 -250.91541912475742 0 1 0
18798 192 1 0.0 1772.230966145387 176.5240561589852 -242.78717848512855 0 1 0
18800 192 1 0.0 1771.9655694479568 213.087186181849 -259.0453718904815 0 1 0
18739 192 1 0.0 1600.3736845933167 220.40420037850964 -289.1252787213567 0 1 0
18740 192 1 0.0 1617.4733001435802 230.62321338538717 -290.98692083777337 0 1 0
18741 192 1 0.0 1634.568537191166 240.8544671601237 -292.85619463788055 0 1 0
18801 192 1 0.0 1771.8544162374444 231.35269685966034 -267.17427893093947 0 1 0
18802 192 1 0.0 1771.7298330139226 249.62350996055352 -275.3079549553565 0 1 0
18803 192 1 0.0 1771.592245404529 267.90766979083776 -283.43438081839156 0 1 0
18804 192 1 0.0 1771.4586104023413 286.1652488329613 -291.57357678932226 0 1 0
18752 192 1 0.0 1804.8507415388972 311.67513147547726 -259.37824754654224 0 1 0
18753 192 1 0.0 1816.0580588642763 307.9656549153324 -243.22789749210006 0 1 0
18751 192 1 0.0 1793.6205878434328 315.3427398114327 -275.5142987632914 0 1 0
18750 192 1 0.0 1782.4217889863269 319.0429736499965 -291.6739157291432 0 1 0
10983 113 1 0.0 1817.475271529116 -409.15139141309163 -201.7472500730505 0 0 0
11042 113 1 0.0 1892.0655226221286 -437.9994612633214 -203.97318945332617 0 0 0
11041 113 1 0.0 1904.7555452376082 -431.8542716007608 -218.1658383529487 0 0 0
11040 113 1 0.0 1917.4340086472412 -425.6730186107276 -232.35116151798323 0 0 0
11043 113 1 0.0 1879.3864289180751 -444.1718879201825 -189.8070749643186 0 0 0
10982 113 1 0.0 1811.5089153328236 -395.7847518127084 -215.36889008941947 0 0 0
10981 113 1 0.0 1805.560738029859 -382.4098651482257 -229.01464409946325 0 0 0
25553 401 4 0.0 1764.245026577438 -235.82475127018967 -200.65301754612923 -3 1 -5
25555 401 4 0.0 1858.286978027182 -232.52709788918807 -231.19985911312438 -3 1 -5
18781 192 1 0.0 1722.797266400529 134.090642734377 -193.37761367423244 0 1 0
18789 192 1 0.0 1738.0687773125867 156.06472037356778 -239.04315636211754 0 1 0
18797 192 1 0.0 1772.3656035949164 158.2602171411209 -234.65260030806013 0 1 0
18780 192 1 0.0 1739.3700007613477 136.05924158759694 -204.44139944071475 0 1 0
18779 192 1 0.0 1755.930042434527 138.03012870090166 -215.49335358377385 0 1 0
18788 192 1 0.0 1755.2807030002436 148.0162648319454 -232.79496010651522 0 1 0
18769 192 1 0.0 1772.4876141813188 139.98830446766834 -226.53484930197953 0 1 0
18770 192 1 0.0 1773.406698294899 142.07482410209462 -206.65655807734063 0 1 0
18806 192 1 0.0 1783.5602102613727 154.59120145015933 -218.5243443057272 0 1 0
18736 192 1 0.0 1602.3525106662587 190.36880341112288 -237.20141625513824 0 1 0
18734 192 1 0.0 1603.6422136905333 170.35139467800036 -202.59757316116148 0 1 0
18735 192 1 0.0 1602.9974456565312 180.3514137154616 -219.90654478009904 0 1 0
18807 192 1 0.0 1794.6559775406458 169.1843685622044 -210.49276018783564 0 1 0
18808 192 1 0.0 1805.7270779809899 183.7710102319691 -202.47679358943046 0 1 0
18809 192 1 0.0 1816.8211596948997 198.3523297507804 -194.47106178590772 0 1 0
18754 192 1 0.0 1827.2570633149874 304.3052627140365 -227.07750464956564 0 1 0
18755 192 1 0.0 1838.4690234114835 300.62423834834783 -210.9493149655623 0 1 0
18756 192 1 0.0 1849.683070717383 296.94410137770075 -194.79756259241546 0 1 0
10987 113 1 0.0 1841.3070321921368 -462.674311475055 -147.2741358538422 0 0 0
10988 113 1 0.0 1853.2916409927905 -475.82615952960964 -156.36771925317558 0 0 0
10989 113 1 0.0 1865.287257521041 -488.9956539353608 -165.47462426296835 0 0 0
11045 113 1 0.0 1853.9937290443977 -456.5049402243 -161.46132052038064 0 0 0
11074 113 2 0.0 1857.128599561414 -451.2257776644922 -142.944927898904 0 0 0
11044 113 1 0.0 1866.6768237636102 -450.3494289595479 -175.61046851886493 0 0 0
10986 113 1 0.0 1835.3714752664769 -449.2930321091498 -160.8839444183266 0 0 0
10984 113 1 0.0 1823.44378036649 -422.5298036209439 -188.1340536279743 0 0 0
10985 113 1 0.0 1829.400316702475 -435.91135024290907 -174.4952223300608 0 0 0
18733 192 1 0.0 1604.2930097490566 160.35287603702594 -185.27794472114397 0 1 0
18732 192 1 0.0 1604.9532082997712 150.35679386725727 -167.9804784129515 0 1 0
18731 192 1 0.0 1605.6126738827725 140.35111886613174 -150.6795465811664 0 1 0
18785 192 1 0.0 1656.5798573775837 126.2298603385308 -149.20335224341025 0 1 0
18786 192 1 0.0 1640.0548626864959 124.25856590666162 -138.15480493414793 0 1 0
18784 192 1 0.0 1673.1383176192608 128.17379781941224 -160.25109237838694 0 1 0
18783 192 1 0.0 1689.703556390306 130.1573138748998 -171.30939703501718 0 1 0
18782 192 1 0.0 1706.236965645741 132.1265984404597 -182.3295665934565 0 1 0
18771 192 1 0.0 1774.33787465988 144.1473135240234 -186.79472889163 0 1 0
18772 192 1 0.0 1775.2659711153694 146.22672409478733 -166.91455641400316 0 1 0
18773 192 1 0.0 1776.1922181084224 148.32392497382105 -147.05011346244007 0 1 0
18810 192 1 0.0 1827.8908733353146 212.9523811928206 -186.42930781851413 0 1 0
18811 192 1 0.0 1838.996577875129 227.52113344439505 -178.41588171692322 0 1 0
18812 192 1 0.0 1850.0678041615665 242.11467449862482 -170.3969911090986 0 1 0
18813 192 1 0.0 1861.1402698645495 256.6948402056574 -162.3792636475854 0 1 0
18814 192 1 0.0 1872.230383972084 271.29697579153986 -154.36680834316314 0 1 0
18758 192 1 0.0 1872.0980449523759 289.5592387151531 -162.48593394105015 0 1 0
18757 192 1 0.0 1860.9092615319673 293.26644922329876 -178.63091149021108 0 1 0
18759 192 1 0.0 1883.3004304471326 285.881889792345 -146.3531343328341 0 1 0
3270 34 1 0.0 1083.3350939142583 -234.010176978278 -89.74088969922853 1 0 0
3269 34 1 0.0 1085.636507296721 -216.26521451572157 -98.63725188469829 1 0 0
3268 34 1 0.0 1087.9332603337766 -198.48951866160218 -107.53342683320716 1 0 0
3318 34 1 0.0 1029.999056041054 -159.46518909746536 -89.60585660266925 1 0 0
3319 34 1 0.0 1046.2175647795057 -155.9031843473234 -100.76695541047673 1 0 0
3265 34 1 0.0 1094.8418150720033 -145.19928354251522 -134.24348397418183 1 0 0
3267 34 1 0.0 1090.2362505375277 -180.74328913873487 -116.45122601494191 1 0 0
3266 34 1 0.0 1092.5357161624802 -162.96826113450615 -125.34917045549669 1 0 0
3320 34 1 0.0 1062.4255614559545 -152.33401735024216 -111.92014800716008 1 0 0
3321 34 1 0.0 1078.6252936157016 -148.76709562899606 -123.09451276920423 1 0 0
3264 34 1 0.0 1087.9667046730535 -131.1249660296471 -121.82631297755329 1 0 0
3263 34 1 0.0 1081.0887168587374 -117.04654813263063 -109.36765753606669 1 0 0
3262 34 1 0.0 1074.2101032128069 -102.95841868448237 -96.9677082355581 1 0 0
18816 192 2 0.0 1615.2440559221857 104.71602524950772 -125.36607097311625 0 1 0
18730 192 1 0.0 1606.2505919207845 130.32643349874496 -133.37144299079284 0 1 0
18729 192 1 0.0 1606.9063879391563 120.35107508895179 -116.06856619900304 0 1 0
18787 192 1 0.0 1623.4819289684724 122.2977967866217 -127.11244945565572 0 1 0
18728 192 1 0.0 1624.3893297087238 124.37804143866654 -107.22785475147279 0 1 0
18727 192 1 0.0 1641.8818590285655 128.4194664303818 -98.4271084522476 0 1 0
18726 192 1 0.0 1659.3492119455948 132.4796055183514 -89.6101351034031 0 1 0
18774 192 1 0.0 1777.1162960830804 150.41414877160733 -127.17627308898076 0 1 0
18775 192 1 0.0 1778.0462783710411 152.46768551145823 -107.3079944413352 0 1 0
18776 192 1 0.0 1778.9837294627544 154.57157956146847 -87.43158769982105 0 1 0
18764 192 1 0.0 1832.5603536700974 223.3550388843144 -87.08771247323446 0 1 0
18763 192 1 0.0 1842.7028212074663 235.85949045681875 -98.92673197898706 0 1 0
18762 192 1 0.0 1852.8713936334295 248.35654532136533 -110.79925098091519 0 1 0
18761 192 1 0.0 1863.0126121618437 260.87820136857033 -122.65284911418509 0 1 0
18760 192 1 0.0 1873.1642498511108 273.3907351906959 -134.47830621946972 0 1 0
3275 34 1 0.0 1071.83879401519 -322.8149600019295 -45.22559339543798 1 0 0
3330 34 1 0.0 1057.9095261297425 -308.61388520600667 -42.95664436492638 1 0 0
3274 34 1 0.0 1074.1164386134528 -305.0503527062231 -54.12196400669409 1 0 0
3329 34 1 0.0 1043.9831156219475 -294.4273331048752 -40.70268808252091 1 0 0
3327 34 1 0.0 1016.1882417465616 -266.0348403764761 -36.19272889139483 1 0 0
3328 34 1 0.0 1030.084203016168 -280.23357806408103 -38.440625173897764 1 0 0
3272 34 1 0.0 1078.7290172180465 -269.54585162501724 -71.93893168609185 1 0 0
3273 34 1 0.0 1076.4289991679088 -287.3022761966826 -63.036685725385226 1 0 0
3271 34 1 0.0 1081.018726691865 -251.76599306947492 -80.82004201533773 1 0 0
3314 34 1 0.0 965.1675392481784 -173.73682976762413 -44.96612227082359 1 0 0
3315 34 1 0.0 981.3615914666311 -170.16904352205628 -56.12268176554557 1 0 0
3316 34 1 0.0 997.5826490129592 -166.60253280387707 -67.2841383659159 1 0 0
3317 34 1 0.0 1013.7880026427698 -163.03088913874274 -78.44482598253015 1 0 0
3258 34 1 0.0 1046.6817265670957 -46.654591502179365 -47.250495956535474 1 0 0
3259 34 1 0.0 1053.5604819594203 -60.736048578452824 -59.6687267008696 1 0 0
3261 34 1 0.0 1067.335808677954 -88.89403424691557 -84.53512638173184 1 0 0
3260 34 1 0.0 1060.4518285167921 -74.80589183289077 -72.09919517437001 1 0 0
3257 34 1 0.0 1039.809385422798 -32.56780924092488 -34.82143483431677 1 0 0
18725 192 1 0.0 1676.8611897293588 136.50966983799245 -80.77684073217083 0 1 0
18724 192 1 0.0 1694.3433090248452 140.55176280973984 -71.9498478938142 0 1 0
18723 192 1 0.0 1711.837606371684 144.6240900110138 -63.13650049070944 0 1 0
18722 192 1 0.0 1729.2914347085816 148.67403501932597 -54.289496682176576 0 1 0
18721 192 1 0.0 1746.8040308542372 152.71135855258342 -45.47743412630084 0 1 0
18720 192 1 0.0 1764.2930197886633 156.77446496410263 -36.6465347081002 0 1 0
18777 192 1 0.0 1779.9131365297255 156.64678371388246 -67.56987666752266 0 1 0
18778 192 1 0.0 1780.8398054721495 158.73573772925565 -47.70605943128606 0 1 0
18815 192 2 0.0 1790.0780327648527 145.19423440822155 -37.1219041103211 0 1 0
18768 192 1 0.0 1791.9407029740992 173.31180488021678 -39.68850431025681 0 1 0
18767 192 1 0.0 1802.0817754445986 185.84288049886177 -51.553395524652636 0 1 0
18765 192 1 0.0 1822.388241091047 210.84658985716587 -75.22339737893466 0 1 0
18766 192 1 0.0 1812.2484148859646 198.3427294864539 -63.383311420715344 0 1 0
3278 34 1 0.0 1046.910409627208 -313.50959298203344 8.547925499666938 1 0 0
3276 34 1 0.0 1063.4953441437447 -319.70115778269485 -27.300512285229953 1 0 0
3277 34 1 0.0 1055.2128286593118 -316.61689588038354 -9.361981167264004 1 0 0
3326 34 1 0.0 1002.2923778224178 -251.8400359179817 -33.93048040556638 1 0 0
3287 34 1 0.0 943.9543194492411 -203.03169668961348 8.691264370407133 1 0 0
3322 34 1 0.0 946.648414919848 -195.04517139629147 -24.901749227449393 1 0 0
3325 34 1 0.0 988.363981430296 -237.63365253955968 -31.661345502366967 1 0 0
3324 34 1 0.0 974.4544379249237 -223.4507293825836 -29.40961159004069 1 0 0
3323 34 1 0.0 960.5562963973193 -209.26274628615778 -27.155654295669823 1 0 0
3286 34 1 0.0 938.3439298849543 -191.94490798339302 -6.957306448353976 1 0 0
3285 34 1 0.0 932.7505548410663 -180.8450189049578 -22.643663175611845 1 0 0
3304 34 1 0.0 942.0693524722353 -163.22540262237084 -21.387871709525786 1 0 0
3296 34 1 0.0 938.3112262927353 -163.6956806339943 13.045648323415906 1 0 0
3295 34 1 0.0 935.504674780954 -172.28472346571914 -4.793109685651302 1 0 0
3313 34 1 0.0 948.9614846798399 -177.28349141908473 -33.804112677702335 1 0 0
3305 34 1 0.0 951.4147034560283 -145.5593391240945 -20.102492106234095 1 0 0
3306 34 1 0.0 960.7333246037717 -127.92386987199214 -18.816110670751403 1 0 0
3307 34 1 0.0 970.0774140028311 -110.28106829656126 -17.583641969461887 1 0 0
3308 34 1 0.0 979.3934245546899 -92.62470527476316 -16.306519435216888 1 0 0
3309 34 1 0.0 988.7323627681087 -74.98771552892455 -15.03984666719856 1 0 0
3310 34 1 0.0 998.0796374284413 -57.34827232892512 -13.779958767226924 1 0 0
3311 34 1 0.0 1007.392616451707 -39.69158784009451 -12.508068390438657 1 0 0
3312 34 1 0.0 1016.7159913098241 -22.048828006377803 -11.24176702161263 1 0 0
3254 34 1 0.0 1019.5052022709629 -13.450382190360342 6.615821958596928 1 0 0
3256 34 1 0.0 1032.9219939439643 -18.468388913152243 -22.404600094220033 1 0 0
3255 34 1 0.0 1026.044334758762 -4.410050043110195 -9.979291147594704 1 0 0
18719 192 1 0.0 1781.7682932501866 160.79375252330215 -27.80748024629311 0 1 0
12486 128 1 0.0 216.40246297412972 1112.6816133964132 15.350165883853597 0 -1 0
12487 128 1 0.0 224.37944379422783 1111.209644072319 -2.939755255886056 0 -1 0
12488 128 1 0.0 243.79987414726182 1115.8054498347803 -1.629807591565587 0 -1 0
12489 128 1 0.0 263.2143016590495 1120.3954254084995 -0.2791447941354038 0 -1 0
12542 128 1 0.0 234.92445049661762 1105.5001233020205 13.063588547680437 0 -1 0
12490 128 1 0.0 282.64876959833526 1124.988493747816 1.0296694901618964 0 -1 0
12491 128 1 0.0 302.04886337541376 1129.6060472367449 2.3637764134610126 0 -1 0
12492 128 1 0.0 321.4716273016823 1134.1830540203525 3.6763466572728207 0 -1 0
12493 128 1 0.0 340.8961186623354 1138.7789591418277 4.986213429839406 0 -1 0
12543 128 2 0.0 422.9170327553559 1137.8971637497782 13.657907821225177 0 -1 0
12494 128 1 0.0 360.3126714835465 1143.37395864703 6.3132100430201135 0 -1 0
12495 128 1 0.0 379.7326577392876 1147.9472757990113 7.629723386548397 0 -1 0
12496 128 1 0.0 399.1533803844107 1152.5481641512542 8.961131531455056 0 -1 0
12447 128 1 0.0 418.57279639759906 1157.1398557347918 10.27099546258249 0 -1 0
3279 34 1 0.0 1038.6106114320382 -310.4244860769206 26.475204891765973 1 0 0
3280 34 1 0.0 1030.3054979212532 -307.30702649980617 44.410198072993914 1 0 0
3281 34 1 0.0 1022.0037751273665 -304.1959994253704 62.36329311947443 1 0 0
3288 34 1 0.0 949.5641710333437 -214.1250788409461 24.374314458602196 1 0 0
3289 34 1 0.0 955.1836250746459 -225.21129651280546 40.041125765497284 1 0 0
3290 34 1 0.0 960.7741311582562 -236.32525394578096 55.70162621600435 1 0 0
3297 34 1 0.0 941.0951077173535 -155.10218113035194 30.899796357314333 1 0 0
3298 34 1 0.0 943.8677926667248 -146.52396619681727 48.75521231052413 1 0 0
3299 34 1 0.0 946.6241745941937 -137.91727522389323 66.60305165838518 1 0 0
3251 34 1 0.0 999.8255373267621 -40.64738517153499 56.35666700866115 1 0 0
3252 34 1 0.0 1006.4084195380572 -31.577057017313553 39.7769062884356 1 0 0
3253 34 1 0.0 1012.9476813023966 -22.520434977233922 23.202320511155463 1 0 0
12539 128 1 0.0 266.6146348489197 1088.326488482511 61.036832095193866 0 -1 0
12484 128 1 0.0 200.49939553911688 1115.6417023889883 51.94448363711979 0 -1 0
12485 128 1 0.0 208.4655280506488 1114.1705821065495 33.655809793298765 0 -1 0
12541 128 1 0.0 245.49400432034508 1099.7730605071854 29.036261852888128 0 -1 0
12540 128 1 0.0 256.07078927440426 1094.0545205338162 45.034595227395506 0 -1 0
12504 128 1 0.0 392.00556188695964 1126.200028787569 54.2857501233623 0 -1 0
12505 128 1 0.0 400.85148082653325 1136.4955565179632 39.60858215010977 0 -1 0
12506 128 1 0.0 409.7231239027324 1146.8395085552022 24.943013939551975 0 -1 0
12448 128 1 0.0 422.63005435698403 1161.4498638854166 29.38857729070436 0 -1 0
12449 128 1 0.0 426.68046101054415 1165.7623639803223 48.49276225182745 0 -1 0
12450 128 1 0.0 430.7044350175619 1170.0821822226299 67.58392626658005 0 -1 0
3284 34 1 0.0 997.091386257331 -294.88322590140706 116.13869209903655 1 0 0
3282 34 1 0.0 1013.7040516971188 -301.1091625039499 80.28560064387722 1 0 0
3283 34 1 0.0 1005.4012215325826 -298.0117504988458 98.2030221939545 1 0 0
25189 349 4 0.0 873.0387773414348 -257.11780964268166 87.97250059000962 4 -2 4
3291 34 1 0.0 966.3769487799361 -247.42022173834215 71.38728926603578 1 0 0
3292 34 1 0.0 971.9681355559939 -258.50710046185293 87.06456501584546 1 0 0
3293 34 1 0.0 977.578430132568 -269.5953628352163 102.71497535219238 1 0 0
3294 34 1 0.0 983.1938300473499 -280.69535181132005 118.38458179626284 1 0 0
3300 34 1 0.0 949.3979301483406 -129.3516049350672 84.44451674803125 1 0 0
3301 34 1 0.0 952.1766237392816 -120.76684156179199 102.29763331151143 1 0 0
3302 34 1 0.0 954.9466731884671 -112.16883618387557 120.16522640882073 1 0 0
3250 34 1 0.0 993.2607674784047 -49.6954168828513 72.93706235683851 1 0 0
3248 34 1 0.0 980.1606491694394 -67.82753108981318 106.1028626412701 1 0 0
3249 34 1 0.0 986.7238520877725 -58.755841151743546 89.51795780136028 1 0 0
10796 111 1 0.0 802.3558470548805 60.41660923507427 118.68814132483854 0 0 0
10798 111 1 0.0 793.3558062100996 98.81823821252976 111.93419784658997 0 0 0
10797 111 1 0.0 797.8464583276777 79.6125901291706 115.31161225754447 0 0 0
10803 111 1 0.0 743.369332088717 163.34149306692302 116.60423401639166 0 0 0
10799 111 1 0.0 788.8658923865346 117.9944651274384 108.52943190048235 0 0 0
10802 111 1 0.0 761.6224830408962 159.86025992842107 109.18737458054515 0 0 0
10801 111 1 0.0 779.8617479870854 156.36788830844623 101.75388729813768 0 0 0
10800 111 1 0.0 784.3744764297621 137.19230400772906 105.13227088995993 0 0 0
10858 111 1 0.0 774.182753261619 147.62917229907862 118.81959516642392 0 0 0
12538 128 1 0.0 277.1836740627512 1082.6228010902958 77.0265154852543 0 -1 0
12536 128 1 0.0 298.31797470409145 1071.1612550203818 109.00247466791545 0 -1 0
12537 128 1 0.0 287.74901042216203 1076.873700282937 93.0158097353048 0 -1 0
12500 128 1 0.0 356.58350568753525 1084.9544107737495 112.9721304511606 0 -1 0
12483 128 1 0.0 192.54849929238918 1117.0968797096582 70.2241196597544 0 -1 0
12481 128 1 0.0 176.62813767883242 1120.0388633187347 106.82408554258916 0 -1 0
12482 128 1 0.0 184.59006035374833 1118.5569971978603 88.5234322725792 0 -1 0
12501 128 1 0.0 365.4102970362539 1095.2813780485776 98.29676433465617 0 -1 0
12502 128 1 0.0 374.2929925223688 1105.5736036714309 83.62777481586296 0 -1 0
12503 128 1 0.0 383.1377568923671 1115.8897608938491 68.96560558396392 0 -1 0
12451 128 1 0.0 434.76156761419605 1174.3741034682384 86.70239988542157 0 -1 0
12452 128 1 0.0 438.80328616236955 1178.6858219542182 105.81807906634279 0 -1 0
25190 349 4 0.0 864.0174466110755 -346.94614319678294 128.67492849293717 4 -2 4
25191 349 4 0.0 952.1789076793253 -302.0221078052111 126.98911771625728 4 -2 4
25187 349 3 0.0 888.420339724828 -285.00248677275374 150.3088367408753 4 -2 4
3331 34 2 0.0 970.59860527528 -293.51303089204833 125.93679091155765 1 0 0
3235 34 1 0.0 988.7810513504785 -291.78711830184096 134.06655223458654 1 0 0
3236 34 1 0.0 985.9510504847666 -272.1117574155192 136.2272180107928 1 0 0
3237 34 1 0.0 983.1330384519821 -252.44059019357366 138.42074426184814 1 0 0
25193 349 4 0.0 912.8011123708436 -223.04224518867971 171.9940659394147 4 -2 4
3238 34 1 0.0 980.3035850507972 -232.75438050175052 140.58757101487762 1 0 0
3239 34 1 0.0 977.4800284071068 -213.07765249585947 142.79985191321893 1 0 0
3240 34 1 0.0 974.649514181683 -193.38334717249424 144.96419737701538 1 0 0
3242 34 1 0.0 968.9826560613853 -154.04908123874955 149.3142280570566 1 0 0
3241 34 1 0.0 971.8139673078948 -173.7191308718681 147.1451961365774 1 0 0
3332 34 2 0.0 942.2708918873411 -96.71446481950214 147.75199764999346 1 0 0
25962 459 4 0.0 925.4631691230336 -90.97978198611676 139.54920070583006 1 2 -1
3243 34 1 0.0 966.1634521136804 -134.35251953444592 151.4870715159215 1 0 0
3303 34 1 0.0 957.7380589154875 -103.59315755651681 138.002755758227 1 0 0
3245 34 1 0.0 960.4910148933635 -94.99735640509722 155.8564528395258 1 0 0
3244 34 1 0.0 963.3304071192003 -114.68103620810098 153.67857890751594 1 0 0
10788 111 1 0.0 778.4507030739218 -60.69017456512908 164.20585846826356 0 0 0
10789 111 1 0.0 793.9097611596271 -52.28675303332635 154.66825054958105 0 0 0
10790 111 1 0.0 809.3754692619685 -43.906172274498346 145.16138072135325 0 0 0
25963 459 4 0.0 843.625793417468 -41.84813298191285 165.97165529320526 1 2 -1