boundary        p p p

units           real
atom_style      full
pair_style      hybrid/overlay dpd ${Tset} 10.0 ${rand1}  coul/cut 10.0 lj/cut 10.0
pair_style      hybrid/overlay dpd 2500 10.0 ${rand1}  coul/cut 10.0 lj/cut 10.0
pair_style      hybrid/overlay dpd 2500 10.0 22052412  coul/cut 10.0 lj/cut 10.0
bond_style      harmonic

read_data       ../data.CUB3DL100_R2
  orthogonal box = (0.0000000 0.0000000 0.0000000) to (500.00000 500.00000 500.00000)
  4 by 3 by 4 MPI processor grid
  reading atoms ...
  100000 atoms
  scanning bonds ...
  2 = max bonds/atom
  reading bonds ...
  49875 bonds
     3 = max # of 1-2 neighbors
     4 = max # of 1-3 neighbors
     8 = max # of 1-4 neighbors
    11 = max # of special neighbors
  special bonds CPU = 0.008 seconds
  read_data CPU = 0.170 seconds
#read_restart res.T2500KV0

comm_modify     mode single vel yes

mass 1	41.073	#CH2-CH-CH2
mass 2	17.031	#NH3	charge +1
mass 3	42.081	#CH2-CH2-CH2
mass 4	1045 #Au
mass 5	1045 #Au

pair_coeff  1 1 dpd  25 4.5
pair_coeff  1 2 dpd  50 4.5
pair_coeff  1 3 dpd  30 4.5
#pair_coeff  1 4 dpd  10  4.5 # Au with PAH CH2-CH-CH2
#pair_coeff  1 5 dpd  10  4.5 # Au with PAH CH2-CH-CH2
pair_coeff  2 2 dpd  75 4.5 # NH3 with NH3
pair_coeff  2 3 dpd  50 4.5
#pair_coeff  2 4 dpd  10  4.5 # Au with PAH NH3
#pair_coeff  2 5 dpd  10  4.5 # Au with PAH NH3
pair_coeff  3 3 dpd  25 4.5
#pair_coeff  3 4 dpd  10 4.5 # Au with PAH CH2-CH2-CH2
#pair_coeff  3 5 dpd  10 4.5 # Au with PAH CH2-CH2-CH2
pair_coeff  4 4 lj/cut 5.29 2.951  #morse 10.95375740  1.5830  3.02420000  8.0  Au
pair_coeff  4 5 lj/cut 5.29 2.951  #morse 10.95375740  1.5830  3.02420000  8.0  Au
pair_coeff  5 5 lj/cut 5.29 2.951  #morse 10.95375740  1.5830  3.02420000  8.0  Au

pair_coeff  1 4 lj/cut 0.18 3.42 # Au with PAH CH2-CH-CH2
pair_coeff  2 4 lj/cut 0.081424812 3.0925 # Au with PAH NH3
pair_coeff  3 4 lj/cut 0.18 3.42 # Au with PAH CH2-CH2-CH2
pair_coeff  1 5 lj/cut 0.18 3.42 # Au with PAH CH2-CH-CH2
pair_coeff  2 5 lj/cut 0.081424812 3.0925 # Au with PAH NH3
pair_coeff  3 5 lj/cut 0.18 3.42 # Au with PAH CH2-CH2-CH2
pair_coeff      * * coul/cut  10.0

bond_coeff      1 225.0 3.0
bond_coeff      2 225.0 2.6

neighbor        2.5 bin
neigh_modify    every 1 delay 0 check no once no

variable vtimpstep equal 1
variable Pdamp  equal  ${vtimpstep}*1000
variable Pdamp  equal  1*1000
variable Tdamp  equal  ${vtimpstep}*100
variable Tdamp  equal  1*100
timestep ${vtimpstep}
timestep 1

restart 500000 res.1 res.2

group PAH type 1 2 3
50000 atoms in group PAH
group Au type 4 5
50000 atoms in group Au
dump 1 all xyz 500000 ${name}.xyz
dump 1 all xyz 500000 T2500KCUBR2.xyz
dump_modify 1 element C N C Au Pt
dump d1 PAH custom 500000 ${name}pah.txt id mol x y z ix iy iz
dump d1 PAH custom 500000 T2500KCUBR2pah.txt id mol x y z ix iy iz
dump d2 Au  custom 500000 ${name}au.txt id mol x y z ix iy iz
dump d2 Au  custom 500000 T2500KCUBR2au.txt id mol x y z ix iy iz

variable        totEnergy equal pe+ke
thermo          1000
thermo_style    custom step temp press pe ke v_totEnergy
#thermo_modify   format float %24.16f

dielectric ${dielec}
dielectric 80

#write_data data.T2500KV0

fix NVE0 PAH nve
fix LAN0 PAH langevin ${Tset} ${Tset} ${Tdamp}  ${rand2}
fix LAN0 PAH langevin 2500 ${Tset} ${Tdamp}  ${rand2}
fix LAN0 PAH langevin 2500 2500 ${Tdamp}  ${rand2}
fix LAN0 PAH langevin 2500 2500 100  ${rand2}
fix LAN0 PAH langevin 2500 2500 100  22052413
run     20000000
Neighbor list info ...
  update every 1 steps, delay 0 steps, check no
  max neighbors/atom: 2000, page size: 100000
  master list distance cutoff = 12.5
  ghost atom cutoff = 12.5
  binsize = 6.25, bins = 80 80 80
  3 neighbor lists, perpetual/occasional/extra = 3 0 0
  (1) pair dpd, perpetual, skip from (2)
      attributes: half, newton on
      pair build: skip
      stencil: none
      bin: none
  (2) pair coul/cut, perpetual
      attributes: half, newton on
      pair build: half/bin/newton
      stencil: half/bin/3d/newton
      bin: standard
  (3) pair lj/cut, perpetual, skip from (2)
      attributes: half, newton on
      pair build: skip
      stencil: none
      bin: none
Per MPI rank memory allocation (min/avg/max) = 12.16 | 12.27 | 12.38 Mbytes
Step Temp Press PotEng KinEng v_totEnergy 
       0            0    1643.4374    305887.45            0    305887.45 
    1000    1248.9234    1771.5423    374595.97    372276.62    746872.59 
    2000     1258.832    1766.7153    372470.79    375230.15    747700.94 
    3000    1243.8784    1749.3317    371757.87    370772.82    742530.69 
    4000    1248.1054    1752.7526    368040.48    372032.78    740073.26 
    5000    1248.1428    1748.6576    371021.93    372043.93    743065.86 
    6000    1243.6808    1748.9526    369195.56    370713.92    739909.47 
    7000    1252.3635    1740.4035    369331.13    373302.05    742633.17 
    8000    1247.0231    1739.9013    366076.75    371710.19    737786.94 
    9000    1255.1454    1746.7544    366803.81    374131.27    740935.08 
   10000    1248.1631    1743.7098    367786.91    372049.99    739836.91 
   11000    1249.7951    1749.7583     367464.4    372536.47    740000.87 
   12000     1255.312    1737.7043    367673.23    374180.92    741854.15 
   13000    1248.4469    1749.5751    368304.18    372134.59    740438.77 
   14000    1256.0798    1726.8889    366883.32    374409.79    741293.11 
   15000    1241.3711    1754.9265    366405.32    370025.44    736430.76 
   16000    1247.9625    1733.8101    364274.18     371990.2    736264.38 
   17000    1255.9639    1734.8216    365877.87    374375.25    740253.12 
   18000     1252.332    1746.4398    368051.85    373292.64    741344.49 
   19000     1256.187    1747.7896    366344.15    374441.73    740785.88 
   20000    1251.2677    1746.5096    367169.87     372975.4    740145.27 
   21000    1251.6411    1742.1889    366384.44     373086.7    739471.14 
   22000    1253.2614     1738.098    369006.91    373569.69     742576.6 
   23000    1255.1698    1740.3102    368190.96    374138.54     742329.5 
   24000    1250.1382    1744.8673    364721.33    372638.71    737360.04 
   25000    1253.2131    1742.7451     368862.9    373555.27    742418.17 
   26000    1248.8715    1741.0661    367860.58    372261.15    740121.73 
   27000    1250.0232    1746.6287    367593.49    372604.44    740197.93 
   28000    1252.5984    1744.9555    365504.29    373372.06    738876.36 
   29000    1247.9649    1745.0739    367725.28    371990.92     739716.2 
   30000    1252.9986     1752.018    365254.36    373491.33    738745.69 
   31000    1251.7058    1743.3618    366450.33       373106    739556.32 
   32000    1251.1979    1738.1787    366464.72     372954.6    739419.32 
   33000    1247.9189    1741.4923    368179.05    371977.21    740156.25 
   34000    1255.9297      1741.06    368165.76    374365.04    742530.79 
   35000    1253.5735    1745.2924    367236.64     373662.7    740899.33 
   36000    1249.2676    1729.7513    365689.66    372379.22    738068.88 
   37000    1256.3914    1729.6731    365731.98    374502.66    740234.63 
   38000    1251.1215    1736.4969    365599.05    372931.83    738530.88 
   39000    1251.6976    1736.0227    368255.89    373103.54    741359.43 
   40000    1254.2801    1737.6062    367668.75    373873.34    741542.09 
   41000    1247.6021    1735.9046    366821.46    371882.78    738704.24 
   42000    1250.8481    1744.6233    367640.36    372850.32    740490.69 
   43000    1241.1043    1733.9159     364965.5    369945.93    734911.43 
   44000    1251.5253    1749.1016    366279.42    373052.19    739331.62 
   45000    1252.3971    1734.8928    367798.52    373312.05    741110.57 
   46000    1251.8819    1742.5239    365824.67    373158.49    738983.15 
   47000    1253.8257    1738.3629    369253.89     373737.9    742991.79 
   48000    1246.8148    1746.2519    367070.15     371648.1    738718.25 
   49000    1248.8575    1738.3464    367560.11    372256.98    739817.09 
   50000    1253.1537     1740.648    368479.55    373537.57    742017.13 
   51000    1248.5965    1747.4694    367797.75    372179.17    739976.93 
   52000    1254.8036    1735.6813    367196.36    374029.38    741225.75 
   53000    1242.6611    1740.9998    370549.49    370409.97    740959.46 
   54000    1241.7177    1741.2897    367982.11    370128.75    738110.86 
   55000    1251.7795    1747.4336     368503.9    373127.95    741631.86 
   56000    1248.4665    1733.0881    370369.55    372140.44    742509.99 
   57000    1251.6982    1732.7654    365302.16    373103.71    738405.88 
   58000    1242.1406    1730.8438     368378.5    370254.81    738633.32 
   59000    1253.8845    1740.8226    368742.17    373755.42    742497.59 
   60000    1247.0058    1738.9581    368117.99    371705.02    739823.01 
   61000    1252.3209    1747.8788    367280.46    373289.33    740569.79 
   62000    1249.7609    1735.6293    369746.21    372526.27    742272.48 
   63000    1252.1718    1733.5491    368558.04    373244.91    741802.94 
   64000    1256.3957    1735.3256    369466.34    374503.93    743970.27 
   65000     1242.591    1745.8776    368992.54    370389.07    739381.61 
   66000    1249.6614    1731.3172    369667.95    372496.59    742164.54 
   67000    1243.0573    1747.7372    367243.51    370528.06    737771.57 
   68000    1255.5485    1733.2038    369411.78    374251.43    743663.21 
   69000    1249.0349    1737.0226    371165.25    372309.87    743475.12 
   70000    1252.3154    1736.9055    367455.11    373287.69     740742.8 
   71000    1245.3371    1746.6455    367477.24    371207.61    738684.85 
   72000    1251.4903    1740.5887    371609.14    373041.76    744650.91 
   73000    1256.4345    1748.9345    371209.71    374515.51    745725.22 
   74000    1246.2556    1730.5017    368609.58     371481.4    740090.98 
   75000    1257.7784    1741.3185    367462.36    374916.11    742378.47 
   76000    1248.2331    1740.2882    370215.68    372070.87    742286.55 
   77000    1249.6906    1742.2836     369532.3     372505.3     742037.6 
   78000    1240.0488    1743.7129    370789.27     369631.3    740420.56 
   79000    1248.6259    1735.4247    372353.98    372187.93    744541.91 
   80000    1250.8465    1744.1328    370203.08    372849.84    743052.92 
   81000    1244.2915    1731.2254    368742.96    370895.95    739638.91 
   82000    1247.0117    1734.5832     368283.2    371706.77    739989.97 
   83000     1244.993    1754.2593     370897.7    371105.07    742002.77 
   84000     1247.879    1739.6153    369849.07    371965.31    741814.37 
   85000    1256.9978    1742.4128    369808.09    374683.41     744491.5 
   86000    1247.5427     1745.228    370386.21    371865.06    742251.26 
   87000    1244.5167     1741.227    370435.97    370963.07    741399.04 
   88000    1249.8916    1738.5272    371239.98    372565.22    743805.19 
   89000    1247.2597    1742.3365    370179.17    371780.71    741959.88 
   90000    1256.7651    1737.1503    371808.86    374614.05    746422.91 
   91000    1256.0758    1737.4335    369364.26     374408.6    743772.87 
   92000    1245.1985    1735.6419    373919.14    371166.32    745085.45 
   93000     1255.192    1745.5378    372863.14    374145.14    747008.29 
   94000    1256.0415    1737.7106    372505.13    374398.38    746903.51 
   95000    1245.5439    1741.0883    373129.04    371269.27     744398.3 
   96000    1249.9908    1738.0068    373393.79    372594.78    745988.57 
   97000    1247.6087    1738.6503    367335.89    371884.74    739220.63 
   98000    1243.7408    1736.6658    370982.62    370731.81    741714.44 
   99000    1251.2038    1729.9776    370826.88    372956.36    743783.24 
  100000    1244.5676    1742.6051    371797.45    370978.26    742775.71 
  101000    1251.8028    1736.3942    372724.12    373134.91    745859.03 
  102000    1249.7586    1738.9929    373339.77    372525.58    745865.34 
  103000    1248.9039     1729.237    371665.46    372270.81    743936.28 
  104000    1252.5468    1755.5901    370083.99    373356.69    743440.68 
  105000    1255.8144    1735.2765    374884.78    374330.68    749215.46 
  106000    1239.2217    1731.3055    372978.04    369384.77    742362.81 
  107000    1248.6025    1742.3106    371641.04    372180.97    743822.01 
  108000    1252.2771    1737.0055    371302.29    373276.29    744578.58 
  109000    1251.0875    1748.4531    372778.57     372921.7    745700.28 
  110000    1241.4674    1733.9611    371602.72    370054.14    741656.87 
  111000    1246.3341     1737.164    373885.39     371504.8    745390.19 
  112000    1253.8586    1735.6427    372029.75    373747.68    745777.43 
  113000    1251.3672    1737.9401    373517.49    373005.06    746522.55 
  114000    1252.5248    1737.7409    373628.93    373350.13    746979.06 
  115000    1248.9256    1741.2181    372395.84    372277.27    744673.12 
  116000    1251.3797    1745.7746       374006    373008.79    747014.79 
  117000     1251.208    1739.6624    374606.26    372957.62    747563.88 
  118000    1246.2792      1741.94     373326.7    371488.45    744815.16 
  119000     1246.973    1744.5759    370967.56    371695.25    742662.82 
  120000    1250.5173    1740.6732    371202.24    372751.72    743953.96 
  121000    1250.1418    1731.6998    371471.75    372639.78    744111.53 
  122000    1252.9355     1745.466    370073.39    373472.53    743545.92 
  123000    1248.8865    1741.3212    373951.01    372265.61    746216.61 
  124000    1251.3808    1741.1128    372898.07    373009.11    745907.18 
  125000    1257.6447    1742.5512    374641.46    374876.26    749517.71 
  126000    1252.2697    1741.3109    374915.01    373274.08    748189.09 
  127000    1250.7373    1741.5315    372879.69     372817.3    745696.99 
  128000    1251.6675    1730.6157    372957.22    373094.59    746051.81 
  129000     1253.405     1746.272    374781.52    373612.48       748394 
  130000     1246.408    1728.0047    373845.36    371526.83    745372.19 
  131000    1252.9188    1740.4687    370486.29    373467.56    743953.85 
  132000    1251.2582    1742.2387    373226.47    372972.56    746199.03 
  133000    1259.2482    1736.9712    373704.91    375354.23    749059.14 
  134000    1250.1988     1727.478    372624.29     372656.8    745281.09 
  135000    1252.8848     1740.933    373513.08    373457.42     746970.5 
  136000    1249.7528    1732.7671    374663.01    372523.86    747186.86 
  137000    1250.4143     1734.692    373505.25    372721.04    746226.28 
  138000    1249.4841    1730.8709    373752.95    372443.76    746196.71 
  139000    1253.3459    1743.0686    374256.88    373594.87    747851.75 
  140000    1244.7983    1743.4086     372194.7    371047.03    743241.72 
  141000    1258.8476    1734.4483    374539.13    375234.82    749773.95 
  142000    1246.3719    1743.4185    371328.98    371516.08    742845.06 
  143000    1254.3341    1739.5835     373582.4    373889.43    747471.83 
  144000    1253.2395    1741.0939    373314.55    373563.15     746877.7 
  145000    1257.6244     1738.726    373934.69     374870.2    748804.89 
  146000    1242.9016    1739.7693    374554.23    370481.64    745035.88 
  147000     1248.733     1745.001    372449.89    372219.86    744669.75 
  148000    1256.5221    1740.5493    373344.93    374541.62    747886.55 
  149000    1246.5413    1740.7161    373088.57    371566.57    744655.14 
  150000    1250.6095    1741.7775    372885.68    372779.21    745664.89 
  151000     1253.784    1736.9898     372114.1    373725.46    745839.56 
  152000    1252.6962    1741.1761    374105.59     373401.2    747506.79 
  153000    1252.0071    1727.6312    372213.63     373195.8    745409.43 
  154000    1250.6755    1736.7998    374761.63    372798.89    747560.53 
  155000    1247.7197    1733.8395    373688.99    371917.81     745606.8 
  156000    1253.7388    1751.3276    373923.91    373711.98    747635.88 
  157000    1247.3798    1738.8544    373445.88     371816.5    745262.38 
  158000     1242.592    1733.7319    373997.62    370389.37    744386.99 
  159000    1252.5113    1750.6423    374827.52    373346.09    748173.61 
  160000      1254.08    1742.6083    374788.98    373813.68    748602.67 
  161000    1244.1106    1736.2104    372589.82    370842.02    743431.84 
  162000    1248.3117    1731.9629    375407.69    372094.29    747501.98 
  163000    1251.1383    1756.2561    375593.57    372936.84     748530.4 
  164000    1249.8185     1735.179    375132.37    372543.43    747675.81 
  165000    1255.2078    1737.1067    376206.57    374149.87    750356.44 
  166000     1250.271    1733.5399     377174.1    372678.31    749852.41 
  167000    1249.1254    1730.0508    374308.01    372336.83    746644.83 
  168000    1249.2519     1730.253    375326.87    372374.55    747701.42 
  169000    1246.2136    1736.7363    377222.88    371468.88    748691.76 
  170000    1261.0864    1743.4898    372642.74    375902.13    748544.87 
  171000     1250.794    1727.8861    374485.76    372834.19    747319.96 
  172000    1248.8217    1733.3499    373449.87    372246.31    745696.18 
  173000    1251.7542     1742.262    373543.34    373120.43    746663.77 
  174000    1249.0933    1749.8202    374343.95    372327.25     746671.2 
  175000    1247.5821    1735.9122    374851.63     371876.8    746728.43 
  176000    1255.0278    1744.8923    376481.41    374096.19     750577.6 
  177000     1243.374    1734.6474    374805.54    370622.47    745428.01 
  178000    1249.0114    1747.5772     375156.3    372302.85    747459.16 
  179000    1250.1892    1740.6216    376628.37    372653.93     749282.3 
  180000    1252.3606    1750.1314    374609.61    373301.17    747910.79 
  181000    1252.9405    1747.2117    377828.65    373474.02    751302.67 
  182000    1248.6654    1736.8739    377264.82    372199.71    749464.53 
  183000    1250.1247     1754.033    376077.23     372634.7    748711.92 
  184000    1239.2085    1740.5058    376991.72    369380.82    746372.54 
  185000    1250.3844     1747.092    376083.02    372712.11    748795.13 
  186000    1252.1751     1739.378     377795.3    373245.88    751041.18 
  187000    1250.8456    1746.2666    375913.47    372849.58    748763.05 
  188000    1255.7285    1743.0096    376066.57    374305.06    750371.64 
  189000    1243.8974    1740.6517    375971.54    370778.49    746750.03 
  190000    1256.2403    1741.7557    377205.56    374457.63    751663.19 
  191000    1258.7172    1743.3929    375438.48    375195.93    750634.41 
  192000    1250.1078    1729.2597    375878.31    372629.66    748507.97 
  193000    1250.2872    1722.1092    376421.23    372683.14    749104.37 
  194000    1240.1915     1740.292    375006.99    369673.84    744680.83 
  195000    1249.0433    1738.7894    375495.82    372312.35    747808.17 
  196000    1252.9139    1730.6948    375970.74    373466.09    749436.83 
  197000    1250.3793    1747.6685    378503.85     372710.6    751214.45 
  198000    1252.0725    1735.8342    376789.06     373215.3    750004.37 
  199000     1254.858    1736.3402    378608.77    374045.59    752654.36 
  200000     1254.612    1734.9441    374936.04    373972.28    748908.32 
  201000    1249.6766    1737.9362    376448.24    372501.14    748949.38 
  202000    1246.2074    1733.2149    375037.66    371467.05    746504.72 
  203000    1250.0565    1732.4445    376665.81    372614.38    749280.19 
  204000    1249.5404    1740.3418    376953.65    372460.53    749414.18 
  205000    1247.3574    1727.7008    376492.69    371809.83    748302.52 
  206000    1257.0236    1739.6927     372888.2    374691.12    747579.32 
  207000    1252.1539     1738.138     377852.5    373239.55    751092.04 
  208000    1254.6386    1731.3904    375971.77    373980.19    749951.97 
  209000     1247.933    1737.4996    377657.29    371981.39    749638.68 
  210000    1253.6934    1731.1231    376810.83    373698.44    750509.27 
  211000    1248.2215     1730.972    377419.52    372067.41    749486.93 
  212000    1248.4277    1736.0696    375960.34    372128.86     748089.2 
  213000    1246.9753    1726.7421    376506.36    371695.92    748202.29 
  214000    1245.9463    1738.3397    378132.91    371389.21    749522.12 
  215000    1254.3049    1732.4902    375294.36    373880.73    749175.09 
  216000    1240.6275    1727.5199    378373.32     369803.8    748177.12 
  217000    1248.0876     1727.775    376552.88     372027.5    748580.38 
  218000    1251.8461    1737.7702    379561.21    373147.82    752709.02 
  219000     1248.687    1748.3219    380094.28    372206.16    752300.44 
  220000    1252.2288    1745.6131       375842    373261.88    749103.88 
  221000    1250.1414     1751.751    378203.31    372639.69    750842.99 
  222000    1248.8809    1742.4308    377237.65    372263.96    749501.62 
  223000    1244.2106    1733.6715    379336.39    370871.83    750208.22 
  224000    1253.4693    1741.1656    378474.04    373631.67     752105.7 
  225000    1250.9561    1739.6411    376287.67    372882.53     749170.2 
  226000     1249.769    1744.6846    377883.07    372528.66    750411.73 
  227000    1240.1681    1738.5111    377511.52    369666.85    747178.37 
  228000    1250.0979    1732.5018    377507.12    372626.71    750133.83 
  229000    1253.8618    1727.9594    376435.14    373748.66     750183.8 
  230000    1243.3825    1738.9348     380030.7    370625.01     750655.7 
  231000    1253.6663    1743.6898    376166.84    373690.37    749857.22 
  232000    1248.2617    1748.0977    375501.43    372079.37    747580.79 
  233000    1243.9543     1722.348    376605.27    370795.44    747400.71 
  234000    1247.4049    1742.6687    375034.91    371823.99     746858.9 
  235000    1251.4191    1736.5346    380227.36    373020.53     753247.9 
  236000    1247.8827    1731.7121     377466.7     371966.4     749433.1 
  237000    1248.0755    1730.0552     375905.1    372023.89    747928.99 
  238000    1250.5872     1740.596    379173.68    372772.56    751946.24 
  239000    1240.8881    1736.2968    378805.17    369881.47    748686.63 
  240000    1247.2625    1739.4916    377031.07    371781.53     748812.6 
  241000    1244.6307    1740.8394    376055.12    370997.05    747052.17 
  242000    1243.2156    1740.0441    380249.65    370575.26     750824.9 
  243000    1249.5158    1739.7092    377148.42    372453.21    749601.63 
  244000    1243.5342    1746.3451     377047.2    370670.23    747717.43 
  245000    1255.1908    1730.5288    377341.74     374144.8    751486.53 
  246000    1250.1893    1725.5492    375691.94    372653.95    748345.89 
  247000    1250.8784    1729.6002    377708.81    372859.37    750568.18 
  248000    1246.6523     1731.016     377000.6    371599.66    748600.26 
  249000     1251.028    1735.8759    377446.45    372903.95     750350.4 
  250000    1254.0039    1748.1048    378755.21       373791    752546.21 
  251000    1247.2178    1741.9963    377043.35    371768.21    748811.55 
  252000    1249.8927    1744.1489    378315.34    372565.53    750880.87 
  253000    1246.5333    1728.2437    377429.81    371564.18    748993.99 
  254000    1247.5095    1736.7748    376969.98    371855.15    748825.14 
  255000    1249.7687    1738.1294    377739.26    372528.57    750267.83 
  256000    1243.8041    1753.4188    377973.13    370750.66    748723.78 
  257000    1248.1111    1732.7884    380066.72     372034.5    752101.23 
  258000    1246.9006    1738.1907    377345.09    371673.68    749018.77 
  259000    1250.1916     1742.331    379010.27    372654.65    751664.92 
  260000    1248.9489    1730.7139    377111.05    372284.21    749395.26 
  261000    1256.0394    1736.2469    379188.91    374397.74    753586.65 
  262000     1247.488    1743.2147    378233.75    371848.75     750082.5 
  263000     1252.654     1737.347    377338.32    373388.64    750726.96 
  264000    1252.7252    1745.7045     376890.5    373409.86    750300.35 
  265000    1249.7336    1738.2891    377096.09    372518.13    749614.21 
  266000     1248.148    1724.2934    379216.83     372045.5    751262.33 
  267000    1252.5229     1736.893     377073.9    373349.55    750423.45 
  268000    1242.0062    1738.6978    377589.98    370214.74    747804.72 
  269000    1255.2113    1737.0496    376398.52     374150.9    750549.42 
  270000    1245.1493    1743.6514    377877.73    371151.64    749029.37 
  271000     1248.226    1742.3154     376879.6    372068.74    748948.34 
  272000    1249.0153    1732.6176     377511.9    372304.02    749815.91 
  273000     1246.335    1736.9627    376134.86    371505.07    747639.94 
  274000    1247.5777    1731.9148    376989.57     371875.5    748865.07 
  275000    1253.0091    1734.3018    377903.02    373494.46    751397.48 
  276000    1250.4012    1743.7822    377804.29    372717.12     750521.4 
  277000     1252.537    1729.7107    377454.86    373353.77    750808.63 
  278000    1248.7119    1735.2033    376142.76    372213.56    748356.32 
  279000    1251.3541    1735.9768    378921.87    373001.16    751923.03 
  280000    1246.2247    1729.0409    375675.98     371472.2    747148.18 
  281000    1252.2289    1730.6558    377512.18     373261.9    750774.09 
  282000    1249.3543    1733.6316    378048.77    372405.06    750453.83 
  283000    1252.8358    1741.9992    377677.52    373442.83    751120.35 
  284000    1250.8532    1740.0203    378493.14    372851.84    751344.98 
  285000    1249.3426    1739.9534    379791.03    372401.58    752192.61 
  286000    1245.1968    1747.4892     377452.8    371165.79    748618.59 
  287000    1255.5406     1745.565    379571.01    374249.07    753820.08 
  288000    1256.0191     1732.327    377964.73    374391.68    752356.41 
  289000    1246.9671    1735.8007    378369.02    371693.48     750062.5 
  290000    1248.9876    1738.3133    377942.48    372295.76    750238.24 
  291000    1248.7589    1744.5881    377744.45    372227.58    749972.03 
  292000    1248.0271    1741.5957     380446.4    372009.45    752455.85 
  293000    1253.2757    1743.9643    378034.79    373573.93    751608.72 
  294000     1255.333    1735.8055    380217.93    374187.19    754405.12 
  295000    1251.6684    1747.9993    378830.38    373094.84    751925.22 
  296000    1249.7334    1730.3304    377892.91    372518.06    750410.96 
  297000     1250.483    1741.5221    376497.94    372741.49    749239.44 
  298000    1251.8613    1742.2738    378241.65    373152.35       751394 
  299000    1252.6451    1732.1281    380648.34    373385.99    754034.33 
  300000    1247.6877    1733.1446    377343.53    371908.29    749251.82 
  301000    1243.8952    1740.1548    375527.53    370777.82    746305.35 
  302000    1256.0305    1747.6249    378136.29     374395.1    752531.39 
  303000    1246.6855    1748.1669    379755.22    371609.56    751364.79 
  304000    1247.3999    1739.6494    380363.89     371822.5    752186.39 
  305000    1255.2674    1736.2809    377739.06    374167.62    751906.68 
  306000    1252.3908    1743.3853    379552.28    373310.18    752862.46 
  307000    1241.4249    1736.6819    379619.34    370041.49    749660.83 
  308000    1240.2803    1735.7782    379388.76    369700.29    749089.05 
  309000    1250.1387    1722.5116    378137.93    372638.86    750776.79 
  310000     1256.485    1736.1137    379057.26    374530.57    753587.83 
  311000    1253.5269    1731.5943    379799.56    373648.82    753448.38 
  312000    1248.8091    1749.0296    379884.39    372242.55    752126.94 
  313000    1250.5289    1740.5785    378567.05    372755.17    751322.22 
  314000    1247.8219    1725.4218    379645.86     371948.3    751594.16 
  315000    1246.3616    1733.2318    377176.12       371513    748689.12 
  316000    1244.1961    1739.0122     378928.4    370867.51    749795.92 
  317000    1252.5894    1737.4989    381124.62    373369.38       754494 
  318000    1248.7547    1728.8404     376474.3    372226.33    748700.63 
  319000     1246.868     1742.239    378000.45    371663.96    749664.42 
  320000    1246.4045    1728.2245    380295.18    371525.79    751820.97 
  321000    1250.3905    1741.2176    378490.21    372713.93    751204.14 
  322000    1245.1412    1731.0783    378531.76    371149.24       749681 
  323000     1244.478    1738.5965    377132.69    370951.54    748084.22 
  324000    1247.1842    1740.8678    378064.48    371758.21    749822.69 
  325000    1241.9099    1740.0585    377293.99    370186.06    747480.05 
  326000    1246.6481     1739.466    380672.58     371598.4    752270.99 
  327000    1245.8159    1735.0934    376986.52    371350.34    748336.86 
  328000    1252.0201    1732.6447    379247.75    373199.67    752447.43 
  329000    1253.9054    1738.1753     376734.3    373761.64    750495.93 
  330000     1255.274    1744.2798    379815.69    374169.59    753985.28 
  331000    1247.3897    1747.5262    378725.84    371819.45    750545.29 
  332000     1253.785    1739.9641    379107.09    373725.76    752832.85 
  333000    1249.3624    1738.1444    380822.56    372407.47    753230.03 
  334000     1248.077     1752.122    377036.08    372024.32     749060.4 
  335000     1253.016    1743.5955    379000.02    373496.53    752496.55 
  336000    1249.5016    1737.4921    381385.98    372448.97    753834.96 
  337000    1252.3193    1735.5479     377585.3    373288.86    750874.16 
  338000    1252.4541     1743.442    378627.31    373329.04    751956.35 
  339000    1252.0992    1747.5879    379484.03    373223.25    752707.28 
  340000    1250.8021    1747.7581    379178.22    372836.62    752014.84 
  341000     1250.489     1741.362    379910.96    372743.28    752654.23 
  342000    1249.0246    1738.6059    379785.14    372306.78    752091.92 
  343000     1250.988    1733.3617    378361.61    372892.03    751253.64 
  344000    1255.0052    1729.4685    381048.19    374089.47    755137.65 
  345000    1254.1169    1729.9442    379825.77    373824.68    753650.46 
  346000    1251.4173    1734.0936    379351.09    373020.01     752371.1 
  347000    1248.6672    1736.6935    379000.13    372200.24    751200.37 
  348000     1255.154    1744.3915    381842.88    374133.82     755976.7 
  349000    1251.2998    1742.5065    378518.99    372984.97    751503.97 
  350000    1256.6864    1745.6934    379288.31    374590.59    753878.89 
  351000    1243.7252    1748.2613    379821.28    370727.15    750548.43 
  352000    1245.7564    1744.1735    379761.06    371332.61    751093.67 
  353000    1247.8845    1742.9916    381038.91    371966.94    753005.85 
  354000    1250.9029    1736.4249    376632.67    372866.68    749499.35 
  355000    1245.3085    1736.4106    380113.39    371199.08    751312.47 
  356000    1247.5293    1739.9825    379899.26    371861.08    751760.34 
  357000    1251.2968    1739.6862    380262.76    372984.09    753246.85 
  358000    1254.6966    1744.1909    380899.54    373997.49    754897.03 
  359000     1249.383    1746.3851    379280.57    372413.62    751694.19 
  360000    1240.8285    1730.3309    379697.23     369863.7    749560.93 
  361000    1251.1853    1741.2439    380225.78    372950.84    753176.62 
  362000    1255.7135    1745.2769    381002.85    374300.59    755303.44 
  363000    1244.2904    1728.2818    379919.13    370895.62    750814.75 
  364000    1245.7227    1742.7286     382649.7    371322.55    753972.25 
  365000     1249.356    1739.5492    380211.22    372405.56    752616.78 
  366000    1246.2558    1747.0464    379466.97    371481.46    750948.42 
  367000    1247.6573    1728.3992    378177.46    371899.23    750076.69 
  368000     1249.337    1732.7868    379313.04    372399.89    751712.94 
  369000    1243.9586    1736.6335    381302.74    370796.71    752099.45 
  370000     1242.096    1740.7575    380696.17    370241.52    750937.69 
  371000    1244.3282     1747.757    379643.84    370906.88    750550.72 
  372000    1256.3551     1738.521    380187.87    374491.86    754679.72 
  373000    1248.6699    1736.8274    377861.95    372201.05       750063 
  374000    1251.1322    1735.9387    380930.21    372935.02    753865.23 
  375000    1246.7761    1724.3975     379242.1    371636.57    750878.67 
  376000     1249.741    1740.3376    381040.99    372520.31     753561.3 
  377000    1252.9989    1748.1516    380291.21    373491.43    753782.64 
  378000    1244.4593    1741.4541    380315.01    370945.98    751260.99 
  379000     1247.225    1752.8516    379446.55    371770.36    751216.92 
  380000    1249.1418    1742.2824     380803.9    372341.71    753145.61 
  381000    1255.1577    1749.7438    379763.08    374134.92       753898 
  382000    1249.8112    1741.4953    380008.75    372541.25       752550 
  383000    1243.6357    1744.2951    380481.33    370700.46    751181.79 
  384000    1254.3576    1731.7543    379914.85    373896.44    753811.29 
  385000    1248.5346    1742.4495    378691.77    372160.72    750852.49 
  386000    1252.7095     1736.657    380940.62    373405.17    754345.79 
  387000    1251.3958     1733.137     378541.1    373013.58    751554.69 
  388000    1242.4501    1749.8066    377603.75    370347.06    747950.81 
  389000     1252.912    1741.6278    377765.75    373465.54    751231.29 
  390000    1246.8582    1740.3448    380863.75    371661.04    752524.78 
  391000    1246.8325    1747.6377    379898.25    371653.36    751551.61 
  392000    1252.0806    1746.9043    379173.86    373217.71    752391.58 
  393000    1257.2257    1744.2571    381475.64    374751.36       756227 
  394000     1247.485    1731.6834    379684.55    371847.87    751532.42 
  395000    1247.1301    1733.9866     380118.9    371742.08    751860.98 
  396000    1239.9752    1741.8666    379298.15    369609.36    748907.52 
  397000    1256.7916    1734.2924    380763.53    374621.95    755385.48 
  398000    1247.7346    1732.8929    380365.55    371922.28    752287.83 
  399000    1250.1031    1735.2351    381150.75    372628.26       753779 
  400000    1248.7491    1728.7159    380994.72    372224.65    753219.37 
  401000      1247.48    1748.7558     379132.3    371846.38    750978.68 
  402000    1254.7038    1733.9541    380138.28    373999.63    754137.91 
  403000    1249.4088    1740.6132    380635.08    372421.29    753056.37 
  404000    1245.6601     1740.286    378944.55    371303.91    750248.46 
  405000    1255.6781    1742.7226    379189.01    374290.03    753479.04 
  406000    1246.1119    1743.0151    380321.38    371438.59    751759.96 
  407000    1255.7081    1748.5141    382569.32    374298.99    756868.31 
  408000     1247.844    1732.4096    381386.74    371954.88    753341.62 
  409000    1244.9859    1741.3384    380460.45    371102.94    751563.39 
  410000    1253.5363    1744.8863    381380.35    373651.62    755031.96 
  411000     1246.075    1741.7957    380811.42    371427.59       752239 
  412000    1247.8146    1745.5522     379173.4     371946.1     751119.5 
  413000    1250.7943    1726.7472    381767.44     372834.3    754601.74 
  414000    1253.2984    1730.2779    382291.22    373580.71    755871.92 
  415000    1255.9914    1743.2252    380503.17    374383.44    754886.61 
  416000    1243.5658    1732.7395    381002.06    370679.62    751681.68 
  417000    1256.7994    1739.7281       379009    374624.28    753633.29 
  418000    1243.3503     1739.683    377749.59     370615.4    748364.99 
  419000    1252.2578    1740.8109    380551.44    373270.53    753821.97 
  420000    1249.2906    1731.3053    379686.32    372386.06    752072.38 
  421000     1249.663    1735.7954    382575.04    372497.07    755072.11 
  422000     1249.223    1744.4717    381267.82    372365.92    753633.74 
  423000    1251.1153    1732.9583    381963.41    372929.98    754893.39 
  424000    1260.7637    1747.9314    380255.91    375805.94    756061.85 
  425000    1240.3254    1730.8532    380202.65    369713.75     749916.4 
  426000    1250.5554    1743.0972    380726.84    372763.09    753489.93 
  427000     1240.597    1728.8446    380376.89    369794.72    750171.61 
  428000    1250.3495    1745.3769    380880.78    372701.71    753582.49 
  429000    1244.3699     1739.775    380603.17    370919.31    751522.48 
  430000    1254.1778    1733.1671    380641.47    373842.85    754484.32 
  431000    1249.0817    1738.6661    381643.71     372323.8    753967.51 
  432000    1248.6471    1742.4099     377486.8    372194.28    749681.08 
  433000    1254.3334    1729.7689       377433    373889.22    751322.21 
  434000    1250.1351    1742.3602    381139.85     372637.8    753777.65 
  435000    1243.0872    1744.3128    382261.18    370536.96    752798.15 
  436000    1239.4391    1726.1126    379782.15    369449.56    749231.72 
  437000    1245.5718    1730.2882     380250.3    371277.59    751527.89 
  438000    1242.5383    1745.6704    380610.66    370373.36    750984.03 
  439000    1245.6857    1737.0067    382502.13    371311.53    753813.66 
  440000    1246.8904    1736.5497    379995.28    371670.61     751665.9 
  441000    1247.7159    1752.1492    379320.22     371916.7    751236.92 
  442000    1259.4599    1724.5735    379902.75    375417.32    755320.07 
  443000    1251.4436    1745.3598    379868.64    373027.84    752896.48 
  444000    1247.8446    1742.4072     381162.6    371955.06    753117.66 
  445000    1249.9966    1725.9298    380675.77     372596.5    753272.27 
  446000    1251.3583    1736.2826     381642.9     373002.4    754645.29 
  447000    1247.0115    1728.1193    380977.79    371706.71    752684.51 
  448000    1248.4561    1739.3115       381420    372137.32    753557.31 
  449000    1254.1441    1737.8118    384265.04    373832.78    758097.82 
  450000    1246.2211    1737.7949    380543.38    371471.12     752014.5 
  451000    1246.6594    1741.3064    381262.09    371601.76    752863.85 
  452000    1256.7186    1738.8727    380119.66    374600.21    754719.87 
  453000     1257.754    1741.1867    382688.96    374908.83    757597.79 
  454000    1254.3119    1725.6591    381407.77    373882.82    755290.59 
  455000    1246.3186    1741.2867    380985.61    371500.17    752485.78 
  456000    1246.0414    1733.3264    379715.33    371417.55    751132.88 
  457000    1248.1964     1743.264    380109.29    372059.92    752169.21 
  458000    1251.5612    1738.1179    380519.88    373062.89    753582.78 
  459000    1244.8256     1734.753    381896.26    371055.16    752951.42 
  460000    1251.2488    1741.1343    382876.29    372969.77    755846.06 
  461000    1244.9144     1730.733    381489.48    371081.63    752571.11 
  462000    1252.2484    1732.4841    380113.64    373267.72    753381.36 
  463000    1247.9187    1737.3403     381000.2    371977.15    752977.36 
  464000    1253.4521    1733.2814    380952.72    373626.52    754579.24 
  465000     1241.293    1741.6352    379806.85    370002.18    749809.02 
  466000    1246.8197    1730.5557    381255.79    371649.56    752905.35 
  467000    1249.5051    1730.5398    379829.92       372450    752279.92 
  468000    1254.1434     1732.666    378111.95     373832.6    751944.55 
  469000    1242.7731    1731.3502    381082.99    370443.36    751526.35 
  470000    1249.6807    1723.2781    381628.04    372502.35    754130.39 
  471000    1252.3103    1737.0962    381339.22    373286.17    754625.39 
  472000    1254.1525     1737.434    381313.68     373835.3    755148.98 
  473000    1253.2459    1730.7369    381747.26    373565.07    755312.33 
  474000    1253.4303    1747.4411    381784.55    373620.04    755404.58 
  475000    1253.1114    1735.7131     383607.1    373524.97    757132.07 
  476000    1247.8015    1734.9189    381514.61    371942.19     753456.8 
  477000    1256.1137    1739.0712    380901.27    374419.88    755321.14 
  478000    1249.7659      1739.35    381905.75    372527.75     754433.5 
  479000    1257.6113    1733.2837    380980.38     374866.3    755846.69 
  480000    1253.5808    1735.9825    380891.34    373664.88    754556.22 
  481000    1244.5724     1749.855    382101.12    370979.69     753080.8 
  482000    1253.2391    1741.1451    382139.15    373563.04    755702.19 
  483000    1246.7698    1735.5766    382170.02    371634.68     753804.7 
  484000    1257.0454    1745.5829    380892.36    374697.61    755589.97 
  485000    1248.4456    1748.5878    380118.39    372134.18    752252.57 
  486000    1245.4584    1747.0284    382507.92    371243.77    753751.69 
  487000    1251.9165    1736.1599    382260.04    373168.81    755428.85 
  488000    1255.5001    1749.3562    381584.86    374236.99    755821.85 
  489000    1246.9284    1740.1646    380785.08    371681.94    752467.02 
  490000    1249.1009    1745.4737    380520.97    372329.52    752850.49 
  491000    1248.6275    1726.0786    380178.76    372188.42    752367.18 
  492000    1251.3826    1725.9429    385219.57    373009.65    758229.22 
  493000    1255.5713    1731.3672    379753.83    374258.21    754012.04 
  494000     1242.583    1730.5039    381134.76    370386.67    751521.44 
  495000    1251.4138    1743.2008    381084.93    373018.97    754103.89 
  496000    1252.0493    1741.8258    380809.97    373208.37    754018.34 
  497000    1254.2391    1745.5207    379121.17    373861.11    752982.28 
  498000    1244.8327     1739.986    380509.62    371057.26    751566.88 
  499000    1251.9062     1739.877    381556.82    373165.73    754722.55 
  500000    1251.3123     1735.601     381183.5    372988.69    754172.19 
  501000    1248.7351    1732.3015    384103.43    372220.48    756323.91 
  502000    1247.6635    1737.5857    379928.74    371901.08    751829.82 
  503000    1252.7134    1738.9588    381375.29    373406.33    754781.62 
  504000    1252.7422    1739.8793    380398.97    373414.93     753813.9 
  505000    1245.7213    1744.5817    380645.23    371322.15    751967.38 
  506000     1253.292     1737.547     379843.2    373578.81    753422.01 
  507000    1252.8923    1732.6997    381578.43    373459.67     755038.1 
  508000     1256.218    1738.6388    379615.98    374450.97    754066.95 
  509000    1256.0656    1740.3681    382152.25    374405.56    756557.81 
  510000    1247.5145    1746.5947    379766.94    371856.65    751623.59 
  511000    1256.0097    1737.9942     380317.1    374388.88    754705.98 
  512000    1247.3359    1734.8858    380683.25    371803.41    752486.66 
  513000    1250.4277    1743.7068    383219.82    372725.03    755944.85 
  514000    1240.9591    1741.5689    382716.12    369902.64    752618.76 
  515000    1258.4212    1746.1754    384057.42    375107.72    759165.13 
  516000    1247.5761    1736.2014    383476.86    371875.03    755351.89 
  517000     1252.498    1743.8388     382313.2    373342.12    755655.32 
  518000     1250.084    1738.6805    380612.01    372622.55    753234.56 
  519000    1257.0065    1736.1394    382167.75    374686.03    756853.77 
  520000    1246.7385    1735.3807    381750.22    371625.36    753375.58 
  521000    1259.8252    1742.1141    382123.09    375526.21    757649.29 
  522000    1244.2731    1732.3946    380473.27    370890.48    751363.74 
  523000    1246.6013    1730.0172    379350.46    371584.46    750934.92 
  524000    1253.3131    1739.6312    382212.19     373585.1    755797.29 
  525000    1250.0921    1748.6921    381954.05    372624.99    754579.03 
  526000    1252.3659    1741.0456    380883.14    373302.76    754185.89 
  527000    1249.7198    1742.3711    380360.56    372514.01    752874.57 
  528000    1257.2128    1737.5973    381256.42    374747.51    756003.94 
  529000    1247.1588    1743.6949    381551.98    371750.64    753302.62 
  530000    1244.6814    1731.0176     380365.2    371012.17    751377.37 
  531000    1258.8842    1743.6149    382608.22     375245.7    757853.92 
  532000     1251.547    1739.0661     379549.7    373058.65    752608.36 
  533000    1247.2624    1733.9364     381960.7     371781.5     753742.2 
  534000    1246.5715    1740.5309    380238.35    371575.57    751813.92 
  535000    1249.6024    1730.7498    381220.13    372479.03    753699.16 
  536000    1250.2782     1743.778    382217.12    372680.45    754897.57 
  537000    1245.5465    1731.8766    380260.38    371270.03    751530.41 
  538000     1246.637     1735.446       381978    371595.09    753573.09 
  539000    1243.6273    1740.5165    380396.51    370697.98    751094.48 
  540000    1259.8244    1743.4408    382891.62    375525.97     758417.6 
  541000     1254.819    1738.7151    382083.07    374033.97    756117.03 
  542000    1251.6767    1744.8734    381932.47    373097.33     755029.8 
  543000    1250.8309    1739.8415    381867.89    372845.21    754713.11 
  544000    1255.8221    1737.0508    381250.65    374332.97    755583.63 
  545000    1245.8369    1732.2985    380918.11    371356.61    752274.72 
  546000    1246.6598    1735.2758    382842.89    371601.88    754444.77 
  547000    1242.4882    1742.7646    383441.39    370358.43    753799.82 
  548000    1248.7872    1743.2506    382499.76    372236.01    754735.77 
  549000    1254.8184    1738.8054    382762.75    374033.78    756796.53 
  550000    1252.8871    1738.4147    382734.82    373458.11    756192.93 
  551000    1246.6639    1735.7128    379182.13     371603.1    750785.23 
  552000    1254.3409    1738.5668    382593.09    373891.44    756484.53 
  553000    1243.6101    1740.9564    382415.26    370692.85    753108.11 
  554000    1244.3549    1740.5274    381487.71    370914.84    752402.55 
  555000    1246.6796    1736.4636    381947.96    371607.81    753555.77 
  556000    1250.8055    1739.0029    381438.92    372837.63    754276.54 
  557000    1246.4293    1747.4819    381888.06    371533.17    753421.23 
  558000    1245.3937    1738.5561    381154.02    371224.49    752378.51 
  559000    1244.8962    1736.5387     382741.7    371076.21    753817.91 
  560000    1248.8065    1742.6093    382233.04    372241.76     754474.8 
  561000    1249.4108    1736.1509    383461.51    372421.91    755883.42 
  562000    1247.1631    1739.4278    381813.84    371751.91    753565.76 
  563000    1253.7758    1731.1035    381995.38    373723.01     755718.4 
  564000    1254.6542    1745.9614    381806.22    373984.85    755791.07 
  565000    1250.9282     1729.609    382855.71    372874.21    755729.92 
  566000    1246.6311    1734.2214    380662.31    371593.33    752255.63 
  567000     1245.356    1740.6174    381434.66    371213.25    752647.91 
  568000    1254.3669    1733.2391     382812.8    373899.21    756712.01 
  569000    1259.5417    1733.2529    383558.74     375441.7    759000.44 
  570000    1256.5068    1741.7674     382373.1    374537.08    756910.18 
  571000    1247.5044    1722.9943    382911.19    371853.65    754764.84 
  572000    1258.4182    1740.7801    380536.76    375106.81    755643.57 
  573000    1248.4484    1738.4872    381840.57    372135.04     753975.6 
  574000      1245.18    1733.5184    380945.97    371160.81    752106.77 
  575000    1246.5533    1739.1115    382082.76    371570.15    753652.91 
  576000    1251.9866    1734.3267    382121.87     373189.7    755311.57 
  577000     1255.603    1750.0973    384062.79    374267.65    758330.44 
  578000    1252.4879    1723.4965    380212.41    373339.11    753551.52 
  579000    1254.5912    1731.7301    380564.01    373966.06    754530.07 
  580000    1259.1646    1735.5705    381951.23    375329.31    757280.53 
  581000    1264.6219    1741.4257    383581.58       376956    760537.58 
  582000    1251.1061    1742.4915    382068.29    372927.24    754995.53 
  583000    1248.3014    1733.1392    383518.91    372091.21    755610.12 
  584000    1250.8645    1741.2003    384268.01    372855.23    757123.24 
  585000    1255.1533      1748.51    382558.81    374133.61    756692.42 
  586000     1249.507    1743.0787    381352.06    372450.57    753802.64 
  587000     1254.586    1741.9519    383197.88    373964.51    757162.38 
  588000    1249.8118    1737.6032    385548.11    372541.43    758089.55 
  589000    1251.0353      1730.38    380485.44    372906.13    753391.57 
  590000    1247.7125    1745.4197    381554.05    371915.69    753469.73 
  591000    1244.1824    1731.6247    382120.07    370863.43    752983.49 
  592000    1258.6958    1728.0102    381600.05    375189.55     756789.6 
  593000    1248.1453    1738.7233    382151.55    372044.69    754196.24 
  594000    1250.4779     1733.862     383529.2    372739.97    756269.17 
  595000    1242.5802    1740.6219     382906.1    370385.85    753291.94 
  596000    1248.3259    1733.0456    382060.87    372098.53     754159.4 
  597000    1250.0901    1745.9876    382356.14    372624.39    754980.53 
  598000    1250.3288    1733.3446    384746.58    372695.54    757442.13 
  599000    1245.6618      1718.87    383311.36    371304.42    754615.78 
  600000    1242.3006    1733.3922    382948.73    370302.52    753251.25 
  601000    1243.9524    1732.4333    382174.02    370794.86    752968.88 
  602000    1249.9426    1736.9009     384142.7    372580.42    756723.12 
  603000    1253.4318    1745.4554    384429.22    373620.47    758049.69 
  604000    1243.1797    1737.2673    384833.32    370564.56    755397.88 
  605000    1247.5673     1739.156    384165.15     371872.4    756037.55 
  606000    1255.7025    1736.4134    382709.75    374297.31    757007.06 
  607000    1251.1685    1739.5062    383925.54    372945.83    756871.37 
  608000    1255.3055    1736.5519    383098.63    374178.99    757277.62 
  609000     1253.628    1735.6161    381213.28    373678.94    754892.22 
  610000    1241.4729     1728.655    383077.03    370055.78    753132.82 
  611000    1253.0054    1728.9425    380326.66    373493.37    753820.03 
  612000    1250.6114    1743.7998    382502.32    372779.76    755282.09 
  613000    1255.3312    1742.4205    382858.76    374186.64     757045.4 
  614000    1246.7018    1738.4162    383001.65    371614.42    754616.07 
  615000    1255.6667    1741.6862    380385.74    374286.66     754672.4 
  616000    1256.0063    1741.1205    380234.42    374387.88     754622.3 
  617000    1252.7182    1726.5164    382913.09    373407.77    756320.86 
  618000    1249.0094     1749.274    383669.88    372302.26    755972.15 
  619000    1238.5348    1737.5307    384479.07       369180    753659.07 
  620000    1244.2667    1732.1139     383078.7    370888.57    753967.28 
  621000    1245.0051     1734.816    382474.19    371108.67    753582.86 
  622000    1251.0625    1728.9946    381130.74    372914.24    754044.98 
  623000    1247.5612    1735.8175    382428.77    371870.58    754299.35 
  624000    1247.3019    1747.6834    381431.49    371793.29    753224.78 
  625000    1248.9548    1736.4977    383018.36    372285.99    755304.36 
  626000    1252.3976    1735.9724     382994.3    373312.19    756306.49 
  627000    1252.5004    1749.8313     380215.9    373342.84    753558.74 
  628000    1255.7345    1744.7608    381957.89    374306.86    756264.75 
  629000    1259.2794    1731.7671    382572.23    375363.51    757935.74 
  630000    1246.6453    1736.2847    381147.34    371597.57    752744.91 
  631000    1249.8751    1747.3616    382468.19    372560.31     755028.5 
  632000    1245.8921    1745.8453    382503.63    371373.07    753876.69 
  633000     1249.276    1732.7227    382828.11    372381.73    755209.84 
  634000    1246.7629    1742.7057    383773.74    371632.61    755406.36 
  635000    1247.2681    1747.0442    382197.84    371783.22    753981.06 
  636000    1252.2452    1734.2095    380514.51    373266.77    753781.29 
  637000    1243.6512    1734.3684    381732.93    370705.09    752438.01 
  638000    1251.6387     1725.968    382268.04    373085.98    755354.02 
  639000    1247.3462    1733.4519    382848.37    371806.48    754654.85 
  640000     1240.409    1741.8858    382928.09    369738.66    752666.75 
  641000    1242.2436    1747.6308     383616.1    370285.53    753901.63 
  642000    1251.9705    1733.8592    380736.91    373184.89     753921.8 
  643000    1254.2017    1745.4478    382246.12    373849.97    756096.08 
  644000    1246.3654    1743.4533    382840.48    371514.13    754354.61 
  645000    1242.1087    1726.5484    381998.51     370245.3    752243.81 
  646000    1250.4306    1738.4004    382164.65    372725.87    754890.52 
  647000    1243.4439    1740.5194    381010.53    370643.31    751653.84 
  648000    1251.1905    1741.6238    379432.28    372952.38    752384.66 
  649000    1253.4577    1741.8269    382937.89     373628.2    756566.09 
  650000     1249.602    1743.5365    383275.93    372478.89    755754.83 
  651000    1253.3624    1733.9908     383632.6     373599.8    757232.39 
  652000    1249.1225    1745.4772    381807.27    372335.96    754143.22 
  653000    1250.5005    1741.6049    379749.23    372746.73    752495.96 
  654000    1248.5692    1741.6996    384286.89    372171.03    756457.92 
  655000    1259.8482    1745.3946    383110.22    375533.07    758643.29 
  656000    1251.5284    1733.5215    380449.76    373053.12    753502.88 
  657000    1257.6577    1731.7717    380731.06    374880.13    755611.18 
  658000    1246.4802    1744.4533    382266.78    371548.36    753815.13 
  659000    1255.4401    1742.7245    381874.34    374219.09    756093.43 
  660000    1242.2812    1739.7732    381861.37    370296.74     752158.1 
  661000    1248.5084    1743.8828    380675.48    372152.92     752828.4 
  662000    1247.0446    1741.1059    383232.79     371716.6    754949.39 
  663000    1248.2727    1737.1936    379693.89    372082.66    751776.55 
  664000    1250.3007    1739.2189    382055.43    372687.16    754742.59 
  665000    1248.7958     1741.759    383276.31     372238.6     755514.9 
  666000    1256.2808    1739.1527    384592.99    374469.71    759062.71 
  667000      1246.45    1753.5164    382345.67    371539.34    753885.01 
  668000    1254.5333    1748.0435    380681.85     373948.8    754630.66 
  669000     1254.304    1741.9822    382286.86    373880.46    756167.32 
  670000    1258.4846    1747.4201    383457.83     375126.6    758584.43 
  671000    1251.3046    1737.3545    380902.19    372986.41     753888.6 
  672000    1249.0295    1732.1168    382695.16    372308.26    755003.42 
  673000    1252.3866    1735.7347     383218.2    373308.94    756527.13 
  674000    1253.9526    1739.4807    382033.45    373775.71    755809.15 
  675000    1245.5658    1732.2416    382022.82    371275.79    753298.61 
  676000    1249.4287    1738.6635    382033.62    372427.23    754460.85 
  677000    1253.5771    1736.6749    379193.29    373663.79    752857.08 
  678000    1255.1155    1739.0345    383426.31    374122.33    757548.64 
  679000    1252.6123    1748.8139    381917.11    373376.21    755293.31 
  680000    1262.4548    1740.7946    381716.51    376310.02    758026.53 
  681000      1253.91     1734.369    382004.88    373763.01    755767.89 
  682000    1250.1392    1732.7766    381988.17    372639.02    754627.19 
  683000    1252.1857     1734.462    380841.96    373249.05    754091.01 
  684000     1238.706    1741.3451    380788.59    369231.02    750019.61 
  685000    1252.6025    1735.3854    381670.37    373373.27    755043.64 
  686000    1251.3188    1745.4278    382030.55    372990.64    755021.19 
  687000    1249.4459    1739.1304     382031.5    372432.35    754463.85 
  688000    1255.1302     1739.511    382515.35    374126.74    756642.09 
  689000    1255.7065    1737.0189    381167.34     374298.5    755465.85 
  690000     1242.675    1738.2371    383949.55    370414.11    754363.66 
  691000    1252.3589    1745.5606    383216.62    373300.66    756517.28 
  692000    1257.3348     1737.872    385179.63    374783.89    759963.52 
  693000     1252.193    1740.4184    380374.09    373251.21    753625.31 
  694000    1252.0977    1731.1213    381003.71     373222.8    754226.51 
  695000    1240.4203    1735.4647    381315.61    369742.03    751057.64 
  696000    1252.1925    1735.9881    381432.89    373251.06    754683.95 
  697000    1245.1131    1724.7847    384101.65    371140.84    755242.49 
  698000    1254.6897    1730.3423    380483.79    373995.43    754479.22 
  699000    1237.9462    1745.6114    381147.81    369004.55    750152.35 
  700000    1242.7614    1736.4977    381889.57    370439.86    752329.43 
  701000    1247.0675    1749.1447    384079.15    371723.42    755802.57 
  702000    1248.7362    1752.6821    382536.83    372220.81    754757.63 
  703000    1248.1657    1728.1113    384849.22    372050.77    756899.99 
  704000    1250.3455    1743.2296    385098.11     372700.5    757798.62 
  705000    1263.4041    1730.2649    383447.69    376592.99    760040.68 
  706000    1249.2278    1725.2765     383822.2    372367.34    756189.55 
  707000    1252.3706    1736.6911     381022.3    373304.16    754326.46 
  708000    1248.1685    1745.0068    384846.77    372051.61    756898.37 
  709000    1244.6209    1739.5588     385182.1    370994.13    756176.23 
  710000    1245.6833    1740.6769    381143.44    371310.81    752454.25 
  711000    1247.7869    1735.1989    381765.94    371937.87     753703.8 
  712000    1247.6061    1733.4677    382275.36    371883.97    754159.33 
  713000    1245.6743    1732.6238     381018.1    371308.13    752326.23 
  714000    1247.0521    1739.9241    380593.51    371718.82    752312.33 
  715000     1246.299    1741.4707    383212.81    371494.35    754707.16 
  716000    1244.7834    1727.6398    383003.55    371042.58    754046.12 
  717000    1241.5179    1751.8598    384857.63    370069.19    754926.82 
  718000    1246.1232    1734.5311    383617.03    371441.94    755058.97 
  719000    1251.1345    1743.4125    384038.07    372935.69    756973.76 
  720000    1251.1973    1741.5306    381389.96    372954.42    754344.39 
  721000    1248.2896    1732.4646    382288.19    372087.69    754375.88 
  722000    1250.3028    1729.5005    384262.17    372687.79    756949.96 
  723000    1254.0226    1732.5658    385821.94    373796.58    759618.52 
  724000    1253.0332     1741.303    383879.35    373501.65    757380.99 
  725000    1247.0395    1742.3931    385176.66    371715.06    756891.72 
  726000    1247.8763    1732.1028     383647.5    371964.49    755611.99 
  727000    1254.7695    1731.6517    382940.47     374019.2    756959.68 
  728000    1259.1622    1728.7778    382433.15    375328.58    757761.73 
  729000    1248.9639    1745.8784    384426.81    372288.69     756715.5 
  730000    1244.4304     1728.978    384905.94    370937.34    755843.28 
  731000    1246.3633    1732.2067     384106.4    371513.52    755619.92 
  732000    1239.6147    1726.9188    384642.01    369501.89     754143.9 
  733000    1247.1298    1735.9981    383484.06       371742    755226.06 
  734000    1246.1179    1745.2737    385183.79    371440.37    756624.16 
  735000    1249.3939    1738.3557    384066.19    372416.85    756483.05 
  736000    1251.4977    1731.0811    383283.77    373043.96    756327.73 
  737000    1249.0776    1735.9184    382763.01    372322.59     755085.6 
  738000    1247.3173    1742.7852     384904.4    371797.87    756702.27 
  739000    1253.0528    1732.2708     383128.3    373507.49    756635.79 
  740000    1254.7041     1741.942    386275.87    373999.71    760275.58 
  741000    1254.0215    1744.2119    383398.87    373796.24    757195.11 
  742000    1247.9444    1735.1375    382202.23    371984.81    754187.04 
  743000    1253.6788    1730.7434     382260.7    373694.11    755954.81 
  744000    1247.6796    1735.8069    384200.84    371905.86     756106.7 
  745000     1245.204    1735.9538    381835.87    371167.96    753003.82 
  746000    1254.5003    1737.4137    381339.47    373938.98    755278.44 
  747000    1254.3894    1729.1559    380256.44    373905.91    754162.34 
  748000    1248.4485    1740.1889    383198.51    372135.06    755333.57 
  749000    1252.1841    1742.9257    383215.83    373248.58    756464.41 
  750000    1256.5035    1739.2988    381643.63    374536.09    756179.72 
  751000    1250.6881    1732.2272    383716.19    372802.63    756518.82 
  752000    1248.1189    1729.7493    384701.24    372036.82    756738.06 
  753000    1249.2586    1746.5116    383920.59    372376.54    756297.12 
  754000    1251.0056      1736.24    384719.08    372897.29    757616.37 
  755000    1250.0867    1740.1884    382760.05    372623.37    755383.42 
  756000    1255.7386    1739.8631    381014.65    374308.08    755322.73 
  757000    1248.6968    1744.0557    383693.27    372209.08    755902.35 
  758000    1255.7535    1731.0642    381769.54    374312.51    756082.05 
  759000    1254.8998    1729.1355    384212.31    374058.06    758270.37 
  760000    1254.4184    1738.3745    385564.17    373914.56    759478.73 
  761000    1247.2616    1734.1173    384978.54    371781.26    756759.81 
  762000    1252.7416    1737.0103    384787.27    373414.75    758202.02 
  763000    1254.9988    1737.8806     384059.5    374087.56    758147.06 
  764000    1245.1849    1745.5716    383033.86    371162.25    754196.11 
  765000     1252.155    1744.7363    383825.27    373239.87    757065.15 
  766000    1243.8385    1740.4882     381776.4    370760.91    752537.31 
  767000    1245.1239    1746.2926    383068.94    371144.08    754213.02 
  768000    1251.4391    1742.2194    384570.04    373026.49    757596.53 
  769000    1251.2151    1742.1528    383208.61    372959.73    756168.34 
  770000    1245.8157    1734.3899    384004.79    371350.29    755355.08 
  771000    1254.5123    1731.8086    381040.76    373942.55    754983.31 
  772000    1251.0111    1742.7196    384100.44    372898.91    756999.35 
  773000    1253.7757    1746.8601    383112.07    373722.99    756835.06 
  774000    1252.9721    1732.3236     380529.6    373483.45    754013.06 
  775000    1243.6213    1723.3466    383087.76    370696.19    753783.95 
  776000    1257.9901    1735.5044    384274.65     374979.2    759253.84 
  777000    1240.3763     1728.688    383252.83    369728.93    752981.76 
  778000    1244.4093    1749.2665     382790.3    370931.05    753721.36 
  779000    1247.8054    1735.6471    381142.28    371943.37    753085.64 
  780000    1248.6916    1731.6345     383003.2    372207.52    755210.72 
  781000    1243.7291    1736.9987    384789.93    370728.31    755518.24 
  782000    1256.5575     1736.653    384509.81    374552.19       759062 
  783000    1250.9264     1729.157    383649.12    372873.67    756522.79 
  784000    1249.5984    1737.8092     384170.2    372477.82    756648.02 
  785000     1251.231    1737.7124    384451.17    372964.45    757415.62 
  786000    1247.2672    1741.2042    384784.27    371782.95    756567.22 
  787000    1252.0782    1733.2192    382891.71    373216.99     756108.7 
  788000    1254.7365    1741.4686    383380.97    374009.37    757390.35 
  789000     1248.216    1734.1887    383997.75    372065.76    756063.51 
  790000    1253.9777    1732.5209    382428.62     373783.2    756211.82 
  791000    1253.0821    1743.7415    383042.93    373516.24    756559.17 
  792000    1245.2869    1737.5618    385234.41    371192.67    756427.08 
  793000    1250.0564    1747.7517    385294.54    372614.35    757908.89 
  794000    1254.7511    1738.8851    384858.06    374013.74     758871.8 
  795000    1244.5169    1729.9284    382905.37    370963.14    753868.51 
  796000    1251.6676    1746.1678    383769.01     373094.6    756863.61 
  797000    1255.5439    1742.5677    384292.59    374250.05    758542.64 
  798000    1247.2766    1729.4323    385063.51    371785.74    756849.25 
  799000    1249.3487    1748.0923    382285.24    372403.39    754688.63 
  800000    1249.9716    1734.7268    384008.38    372589.07    756597.45 
  801000    1245.8175    1739.0163    383060.51    371350.82    754411.33 
  802000     1253.671    1737.7859    384842.21    373691.76    758533.97 
  803000    1248.6204     1737.978     383687.7    372186.29    755873.99 
  804000    1241.0753     1738.407    385161.37    369937.28    755098.65 
  805000    1240.3292    1732.3858    383446.93    369714.86    753161.79 
  806000    1242.0591     1739.324    382123.35    370230.51    752353.86 
  807000    1246.3175    1742.7627    380225.24    371499.87    751725.11 
  808000    1239.6932    1738.5397    383570.12     369525.3    753095.42 
  809000    1247.2122    1742.5549    383733.79    371766.55    755500.33 
  810000    1253.1178    1740.2526     384451.9    373526.86    757978.76 
  811000    1253.9806    1748.0844    383367.01    373784.07    757151.08 
  812000    1248.8094    1732.2941    385347.12    372242.64    757589.76 
  813000    1255.1988      1744.32    383418.08    374147.18    757565.26 
  814000    1258.0605    1740.1167    380915.27    375000.17    755915.45 
  815000    1245.1336    1750.2178    384533.72    371146.97    755680.69 
  816000    1258.0318    1746.1515    382145.19    374991.63    757136.82 
  817000    1248.2735    1738.2128    383205.65    372082.91    755288.56 
  818000    1247.8217     1736.415    382586.78    371948.23       754535 
  819000    1251.2996    1738.0473    382076.29     372984.9     755061.2 
  820000    1250.4577    1733.9122    384079.22    372733.96    756813.17 
  821000    1253.6487    1742.8443    383911.37    373685.14    757596.51 
  822000    1255.4817    1743.8173    384207.21    374231.52    758438.72 
  823000    1248.3684    1745.1853    384532.87    372111.19    756644.06 
  824000    1247.9109    1739.5213    384814.33    371974.81    756789.14 
  825000    1243.7872     1745.119    382279.11    370745.62    753024.73 
  826000    1255.4568    1734.5578    382848.42    374224.09     757072.5 
  827000    1251.2321    1740.2596     383311.7    372964.78    756276.48 
  828000    1246.5764    1743.0758    383506.61    371577.04    755083.65 
  829000    1246.3037    1748.0352    382878.72    371495.73    754374.45 
  830000    1243.3153     1730.809    383774.45    370604.97    754379.42 
  831000    1247.9625    1736.7356    384656.32    371990.18    756646.51 
  832000    1246.1316    1741.4866    384025.78    371444.45    755470.23 
  833000    1250.9212    1741.6164    382605.52    372872.13    755477.65 
  834000    1259.7161    1733.2468    382197.56     375493.7    757691.26 
  835000    1243.0269    1740.8032    382754.63       370519    753273.63 
  836000    1249.0348    1735.4655    382624.96    372309.84     754934.8 
  837000    1254.8306    1739.9063    383625.09    374037.41     757662.5 
  838000    1247.7206    1754.0045    383229.82     371918.1    755147.92 
  839000    1261.4744    1740.7734    385792.18     376017.8    761809.97 
  840000    1251.8184    1741.9851    382183.38    373139.56    755322.94 
  841000    1245.5517    1728.7747    384758.09    371271.59    756029.68 
  842000    1249.3436    1729.5121    384825.71    372401.88    757227.59 
  843000     1236.607    1740.9969    383871.98    368605.37    752477.35 
  844000    1256.9634    1742.6105    385859.96    374673.16    760533.12 
  845000    1252.9188    1733.0625    382584.67    373467.55    756052.22 
  846000    1252.2477     1751.318    384266.77    373267.52    757534.29 
  847000    1254.0941    1735.9656    382515.09    373817.88    756332.96 
  848000    1245.3432    1736.3637    383671.77    371209.45    754881.22 
  849000     1250.959    1736.3326    384625.98    372883.38    757509.36 
  850000     1250.027    1732.5603    383346.62    372605.59    755952.21 
  851000    1259.2151    1746.0796    381788.89    375344.35    757133.24 
  852000    1252.7597    1748.6165    381942.31    373420.13    755362.44 
  853000    1251.8966    1745.9027    381985.52    373162.86    755148.38 
  854000    1245.0016    1728.7673    382972.09    371107.63    754079.72 
  855000    1250.1475    1733.5422    383019.02    372641.49    755660.52 
  856000    1252.8609    1738.5161    382694.54    373450.31    756144.85 
  857000    1249.0586    1745.5038    382015.46    372316.92    754332.38 
  858000     1259.402    1733.6482    382720.95    375400.05       758121 
  859000    1238.1546    1748.3196    382370.16    369066.68    751436.84 
  860000    1246.7766    1746.9956    383986.92     371636.7    755623.62 
  861000    1250.0619    1736.1724    380523.73    372615.99    753139.72 
  862000     1250.823    1731.6703    382173.69    372842.86    755016.55 
  863000    1250.1301    1738.7662    382904.46    372636.32    755540.78 
  864000    1246.0635     1735.119    384342.52    371424.14    755766.66 
  865000    1253.6162    1734.4997    383775.58    373675.45    757451.03 
  866000    1242.1325     1739.737    384455.64    370252.41    754708.05 
  867000     1242.839    1737.9575    381421.19       370463    751884.19 
  868000    1252.5262    1743.5827    382589.26    373350.53    755939.79 
  869000    1244.8603    1739.8363    386031.46     371065.5    757096.95 
  870000    1252.8576    1727.9979    383157.19    373449.33    756606.52 
  871000    1250.3473    1733.1898    384364.09    372701.05    757065.14 
  872000    1249.9607    1727.0724    384976.31     372585.8    757562.11 
  873000    1255.7428    1730.1037    383347.23    374309.32    757656.55 
  874000    1250.3386    1743.5981    384148.54    372698.46       756847 
  875000      1259.08     1738.432    383324.01    375304.09    758628.11 
  876000    1259.0148    1737.6968    383768.29    375284.64    759052.93 
  877000     1246.005    1742.5294    383816.72     371406.7    755223.42 
  878000     1247.151    1739.2243    382144.24     371748.3    753892.55 
  879000    1248.6838    1735.9418    383362.09     372205.2    755567.29 
  880000    1250.2273    1740.1546    384428.08     372665.3    757093.38 
  881000    1249.0698    1740.6106    382624.04    372320.27    754944.31 
  882000    1244.3738    1734.8997    383472.18    370920.49    754392.66 
  883000    1257.9055    1738.0513    385580.95    374953.98    760534.92 
  884000    1248.7124    1738.9304    386049.16    372213.73    758262.89 
  885000    1252.6647    1735.6202     382973.5    373391.82    756365.32 
  886000    1253.2505     1738.218    383404.96    373566.44    756971.41 
  887000     1256.127    1735.7484    384193.74    374423.85    758617.59 
  888000    1256.1958     1732.231    383837.57    374444.36    758281.93 
  889000    1247.9421     1734.473    383319.64    371984.11    755303.75 
  890000    1250.0404    1746.3437     386662.9    372609.56    759272.46 
  891000    1253.3244    1735.5253    383315.68    373588.45    756904.13 
  892000    1249.0428    1738.3372    384353.01    372312.21    756665.22 
  893000    1257.0015    1736.1464    381968.97    374684.52    756653.49 
  894000    1244.7586    1745.3671    383420.14    371035.19    754455.33 
  895000    1257.1205    1737.9402    382839.48    374720.01    757559.49 
  896000    1250.4922    1733.5205     384198.1    372744.24    756942.33 
  897000    1246.5634    1744.9523    383484.18    371573.16    755057.34 
  898000     1242.078     1728.592    382781.26    370236.14     753017.4 
  899000    1249.2943    1736.1498    383448.98    372387.17    755836.15 
  900000    1254.4823    1747.5666    384183.05    373933.61    758116.66 
  901000    1248.9444    1735.4528    382115.05    372282.88    754397.93 
  902000    1248.9201    1725.0248    383395.06    372275.64     755670.7 
  903000    1248.1268    1739.0808    381677.31    372039.18    753716.49 
  904000    1244.6495    1747.0782    383478.64    371002.67    754481.31 
  905000    1241.7313    1726.1434    382571.93    370132.82    752704.75 
  906000    1259.1802    1739.4949    383981.77    375333.95    759315.71 
  907000    1249.6189    1730.1992    384288.08    372483.94    756772.02 
  908000    1254.1151    1739.4254    383938.81    373824.16    757762.97 
  909000    1246.3501    1728.0142    383397.54    371509.59    754907.13 
  910000    1249.2317    1732.2434    384084.77    372368.51    756453.28 
  911000    1243.4884    1731.1945    384254.09    370656.56    754910.65 
  912000    1246.8801    1733.7042    383835.92    371667.57    755503.49 
  913000    1239.0331    1737.0949    384198.23    369328.55    753526.77 
  914000    1243.3043    1737.8864    382979.93    370601.67    753581.61 
  915000    1254.1785    1736.7418    382869.92    373843.05    756712.97 
  916000    1256.3784    1739.0856    382480.99    374498.78    756979.76 
  917000    1249.1642    1727.6936    384829.55    372348.39    757177.94 
  918000    1247.6843    1738.5635    386136.19    371907.26    758043.45 
  919000    1247.9194    1742.4908    383779.75    371977.36    755757.12 
  920000     1254.262    1743.9107    383463.55    373867.94    757331.49 
  921000    1250.4572    1742.2165    382810.53     372733.8    755544.34 
  922000    1244.7141    1735.9783    383962.12    371021.92    754984.04 
  923000    1254.9025    1736.4301    385286.45    374058.87    759345.32 
  924000    1245.6474    1740.7018    383775.03    371300.13    755075.16 
  925000    1249.9221    1746.6329    386494.09    372574.31     759068.4 
  926000    1236.7394    1736.6275    383083.66    368644.83    751728.49 
  927000    1251.9156    1735.8508    382729.98    373168.51    755898.49 
  928000     1252.274    1733.6578    383586.24    373275.36     756861.6 
  929000    1242.0257    1738.5121    384600.51    370220.55    754821.06 
  930000    1246.2232    1740.9647    385288.27    371471.74    756760.01 
  931000    1247.9995    1742.4265     383768.6    372001.22    755769.82 
  932000    1249.3583    1736.8146    385091.54    372406.26    757497.79 
  933000    1251.4214    1738.8729    384427.87    373021.22    757449.09 
  934000     1256.856     1739.122     383170.9    374641.14    757812.04 
  935000    1246.8692    1737.0642    384351.96    371664.29    756016.25 
  936000    1254.3201    1746.4802    384472.44    373885.26    758357.69 
  937000    1251.4252    1740.3248     382681.2    373022.35    755703.54 
  938000    1250.0566    1738.3279     382231.1    372614.39     754845.5 
  939000    1254.1528    1739.6817     383517.1    373835.38    757352.48 
  940000    1241.7195     1737.523    382623.67    370129.29    752752.96 
  941000    1251.3881    1740.1317    384112.22    373011.29    757123.51 
  942000    1249.7722    1750.3495    383807.61    372529.63    756337.24 
  943000    1252.0828    1737.4969    384508.08    373218.38    757726.45 
  944000    1246.7385    1742.6577    383844.46    371625.35    755469.81 
  945000    1247.8847    1743.8857    385739.84    371967.02    757706.86 
  946000    1252.0403    1733.8073    383681.16    373205.71    756886.86 
  947000    1244.1536    1735.7034    385162.65    370854.84     756017.5 
  948000    1254.5925    1743.6565    383304.77    373966.46    757271.22 
  949000    1252.7214    1743.0905    383087.82    373408.71    756496.53 
  950000    1246.2437    1745.9069    380806.87    371477.86    752284.73 
  951000    1251.9308    1740.0872    384099.49    373173.07    757272.56 
  952000    1254.5113    1744.3796     381784.6    373942.24    755726.84 
  953000    1246.5834    1742.0093    383071.14    371579.11    754650.25 
  954000    1249.4999    1735.1595    381430.05    372448.45     753878.5 
  955000      1252.57    1740.2393    380972.34    373363.59    754335.93 
  956000    1247.3613    1734.5029    380119.57    371810.98    751930.54 
  957000    1255.9136    1729.2437    384227.06    374360.24     758587.3 
  958000    1253.6415    1737.6419    384662.15    373682.99    758345.15 
  959000    1251.8086     1741.025    382570.14    373136.63    755706.77 
  960000    1248.2688    1724.0356    384270.44     372081.5    756351.94 
  961000    1248.2979    1745.7056     381339.9    372090.18    753430.09 
  962000    1252.1815    1742.1874    381005.94    373247.77    754253.71 
  963000    1253.4648    1729.9431    383527.12     373630.3    757157.42 
  964000    1252.7404    1743.9237    383214.33    373414.39    756628.73 
  965000    1256.4838    1742.9515    383373.78     374530.2    757903.98 
  966000    1249.1124    1749.1781    382590.66    372332.95    754923.62 
  967000    1253.0528    1744.7484    383067.74    373507.51    756575.25 
  968000    1248.4242    1749.2206    381702.73    372127.83    753830.55 
  969000    1244.6089    1738.5213    383522.77    370990.56    754513.33 
  970000    1249.5718    1744.4977    382140.31    372469.91    754610.21 
  971000    1246.4506    1736.1191    382219.78    371539.54    753759.32 
  972000    1257.5591    1756.6222    383294.21    374850.74    758144.95 
  973000    1248.5266    1745.4141    384630.37    372158.34    756788.71 
  974000     1257.407    1748.6069    382488.69     374805.4    757294.09 
  975000    1257.4813    1725.7526    385315.99    374827.53    760143.52 
  976000    1258.4682       1733.3    385554.91    375121.72    760676.62 
  977000    1240.6633    1740.3197    384679.06    369814.45    754493.51 
  978000    1247.4613    1737.8903    384301.55     371840.8    756142.34 
  979000    1248.9219    1743.3296    383596.89    372276.18    755873.07 
  980000    1247.9766    1728.5658    384488.71    371994.39    756483.11 
  981000    1248.8949    1742.9167    383686.18    372268.11    755954.29 
  982000    1242.6116    1733.7234    382817.35    370395.21    753212.56 
  983000    1248.2563    1736.2821    386289.59    372077.77    758367.36 
  984000    1248.2148     1734.053    383135.02    372065.39    755200.42 
  985000    1253.7808    1734.2247    383845.56    373724.49    757570.05 
  986000    1240.7059    1740.0092    384699.99    369827.18    754527.16 
  987000     1254.815    1731.8564    387530.55    374032.79    761563.34 
  988000    1255.4873    1739.3947    386476.13    374233.18    760709.31 
  989000    1252.8875    1728.7917    385188.92    373458.22    758647.13 
  990000    1240.2536    1733.4529    382806.65    369692.33    752498.98 
  991000    1255.9286    1740.9625    386087.92    374364.71    760452.64 
  992000    1242.6097    1733.7591    382577.47    370394.63     752972.1 
  993000    1245.1788    1747.3404    382968.32    371160.43    754128.76 
  994000    1254.0486    1739.8941    386319.95    373804.34    760124.29 
  995000    1237.4747    1728.7586    386755.28       368864    755619.28 
  996000    1245.9081    1738.5461     382293.4    371377.81    753671.21 
  997000    1248.9398    1742.9457    382802.58     372281.5    755084.08 
  998000    1244.9937    1733.4339    382546.73    371105.25    753651.99 
  999000    1255.1566    1742.6678     384625.8    374134.61     758760.4 
 1000000    1252.1962    1740.7126    382213.08    373252.16    755465.24 
 1001000    1251.4447    1743.7364     384350.2    373028.16    757378.35 
 1002000    1251.6868    1729.4137    384367.91    373100.34    757468.25 
 1003000    1236.3978    1732.0864    381642.02       368543    750185.02 
 1004000     1255.228    1732.8167    384870.47    374155.87    759026.35 
 1005000    1257.3471    1739.3108    385392.64    374787.53    760180.17 
 1006000    1262.7573    1733.1929    383284.96    376400.21    759685.16 
 1007000    1254.0553    1742.5625    385479.63    373806.33    759285.96 
 1008000     1250.266    1747.1803    384168.18    372676.81    756844.99 
[...]
19762000    1248.4667     1734.679    389499.79     372140.5    761640.28 
19763000    1248.7354    1742.5128    389615.56    372220.59    761836.15 
19764000    1244.6966    1729.3377    391079.98     371016.7    762096.68 
19765000    1247.3573    1742.5492    389554.22     371809.8    761364.02 
19766000    1255.6612    1734.5397    388887.58    374285.01    763172.59 
19767000    1247.1329    1745.5569    388522.43    371742.91    760265.34 
19768000    1247.2586    1731.4068    390322.56    371780.38    762102.94 
19769000    1249.3365    1742.3203    387850.23    372399.75    760249.97 
19770000    1253.5544    1735.8037    391120.52    373657.02    764777.53 
19771000    1250.6145    1746.0748    389738.61    372780.69     762519.3 
19772000     1249.305    1736.0746    390248.71    372390.37    762639.08 
19773000    1249.8617    1731.2905    389582.38    372556.31    762138.69 
19774000    1240.8024    1728.7029    390709.17    369855.92    760565.09 
19775000    1252.1884    1745.6521    389890.26    373249.85     763140.1 
19776000    1243.2718    1732.6824    388273.95    370591.99    758865.94 
19777000    1256.9898     1731.859    388696.53    374681.05    763377.58 
19778000    1247.0795    1733.3296    389449.71       371727     761176.7 
19779000    1250.3593    1729.8769    388090.12    372704.64    760794.77 
19780000    1252.3344    1731.7329    388457.84    373293.37    761751.22 
19781000    1247.8974    1732.3758    388870.39    371970.79    760841.18 
19782000    1243.9862    1737.3841     388973.5    370804.94    759778.44 
19783000    1251.0909     1738.853    390865.93    372922.72    763788.64 
19784000    1253.3643    1736.7987    389217.96    373600.35     762818.3 
19785000    1250.8526     1748.334    390544.27    372851.66    763395.93 
19786000    1239.6454    1732.9007    386316.65    369511.06    755827.71 
19787000    1252.0303    1735.6468    387847.22    373202.72    761049.94 
19788000    1253.2666    1744.8871    389129.96    373571.24     762701.2 
19789000    1250.7437     1738.358    388548.32     372819.2    761367.52 
19790000    1251.8811    1733.9969    389219.89    373158.26    762378.15 
19791000    1250.2771    1741.4751    387351.23    372680.13    760031.36 
19792000    1249.2648    1728.2518    389878.56    372378.39    762256.95 
19793000    1255.3902    1752.5154    386452.17    374204.23     760656.4 
19794000    1254.9467     1736.835    389175.76    374072.03     763247.8 
19795000    1248.9749    1727.2063    391109.25    372291.96    763401.21 
19796000    1251.2974    1733.6884    389040.74    372984.25    762024.99 
19797000    1253.9623    1740.9065    391172.26     373778.6    764950.86 
19798000    1241.6378    1729.0008    387761.89    370104.95    757866.84 
19799000    1245.9784    1740.9846    386349.21    371398.78    757747.99 
19800000    1249.5384    1743.4376    388744.49    372459.94    761204.44 
19801000    1243.4586      1739.98    389775.08    370647.67    760422.75 
19802000    1262.5446    1738.3899    388712.33     376336.8    765049.12 
19803000    1262.0477    1732.9323    391398.77    376188.69    767587.46 
19804000    1249.7283     1738.436    386680.98    372516.54    759197.52 
19805000    1253.7071    1739.5831    389103.49    373702.53    762806.03 
19806000    1249.8376    1741.6469    387729.05    372549.13    760278.17 
19807000    1245.0414    1738.7951    389014.76    371119.48    760134.23 
19808000    1246.7996    1732.4994    387554.81    371643.56    759198.37 
19809000    1249.6574    1744.4941     388030.6    372495.42    760526.02 
19810000    1251.0418    1749.3296    390973.99    372908.06    763882.05 
19811000    1257.5953    1736.0279    389935.57    374861.53     764797.1 
19812000    1252.0013     1749.826    388182.81    373194.08    761376.88 
19813000    1241.6378     1728.519    386926.75    370104.93    757031.67 
19814000    1252.0028    1747.2307    387985.77    373194.51    761180.28 
19815000    1255.2348    1733.8607    388069.77    374157.92     762227.7 
19816000    1250.1076    1740.2071    388181.11    372629.59     760810.7 
19817000    1252.0381    1742.3063    386867.54    373205.03    760072.58 
19818000    1249.9991    1735.6183    386809.47    372597.27    759406.74 
19819000    1249.4538    1741.3532    386722.34    372434.73    759157.07 
19820000    1245.7138    1734.9492    388016.48    371319.91    759336.38 
19821000     1242.977    1739.9471    387947.85    370504.14    758451.99 
19822000    1259.0181    1739.2481    388392.92    375285.64    763678.56 
19823000    1254.6377    1738.2266    388443.93    373979.92    762423.85 
19824000    1253.4169    1722.8648    389243.49    373616.02    762859.51 
19825000     1245.432    1732.2491    389274.23    371235.91    760510.13 
19826000    1251.6193     1732.492    386924.97     373080.2    760005.17 
19827000    1249.1287    1735.3352     389526.5    372337.83    761864.33 
19828000    1254.1425     1735.671    388524.94    373832.32    762357.26 
19829000    1252.6162    1734.1669    389885.36    373377.37    763262.73 
19830000    1249.1138    1731.2973    388308.54    372333.36     760641.9 
19831000    1241.4854    1736.4526    389186.62    370059.51    759246.12 
19832000    1253.0389    1737.4199    389609.72    373503.36    763113.08 
19833000    1246.9134    1746.2864    387791.37    371677.48    759468.84 
19834000    1259.5236    1743.8464    390206.34    375436.31    765642.65 
19835000    1243.6809    1744.0801     389608.3    370713.95    760322.25 
19836000     1251.732    1726.0921    387654.92    373113.79    760768.72 
19837000    1240.5901    1730.0325    387464.62    369792.66    757257.28 
19838000    1247.0587    1738.3037    386942.04     371720.8    758662.84 
19839000    1252.3385    1740.4114    384944.09    373294.58    758238.67 
19840000    1255.4026    1734.0397    387736.16    374207.92    761944.08 
19841000    1252.4483    1737.0505    386704.02    373327.31    760031.33 
19842000    1245.0332    1729.3213       388867    371117.03    759984.03 
19843000    1245.1088    1731.2226    386382.64    371139.58    757522.22 
19844000    1251.7956    1740.5583    386777.99    373132.75    759910.74 
19845000    1250.0089    1735.3031    387400.27    372600.18    760000.45 
19846000    1254.7948    1742.2539     387098.2    374026.74    761124.94 
19847000    1252.8499    1737.0031    384960.84    373447.03    758407.87 
19848000    1246.8844    1742.5102    385877.79    371668.84    757546.63 
19849000     1248.304    1736.9898    387020.12       372092    759112.11 
19850000    1254.8154    1748.8772    385628.31     374032.9    759661.21 
19851000    1250.9654    1730.8398    388054.29     372885.3    760939.59 
19852000    1254.0581    1737.1539    389927.01    373807.15    763734.16 
19853000    1244.8666    1743.3177    386890.99    371067.39    757958.38 
19854000    1247.0676    1736.7721    387100.49    371723.46    758823.94 
19855000    1243.8604    1731.8037    387639.82    370767.46    758407.28 
19856000    1248.0633    1734.7157    389802.71    372020.25    761822.96 
19857000    1250.3539    1734.8563    389822.55    372703.02    762525.57 
19858000    1241.5759    1739.8872    387321.72    370086.49    757408.21 
19859000     1246.022    1737.6951    387117.17    371411.76    758528.93 
19860000     1249.272    1735.9855    389007.09    372380.53    761387.62 
19861000    1244.4894    1750.3922    389843.25    370954.95    760798.19 
19862000    1238.8492    1738.4253    388971.22    369273.72    758244.94 
19863000    1252.3722    1744.6005    385322.76    373304.64     758627.4 
19864000    1258.9558    1746.7305    388385.55    375267.05     763652.6 
19865000    1249.2995    1741.1374    386999.39    372388.72    759388.12 
19866000     1253.877    1743.9041    389633.92    373753.17    763387.09 
19867000     1263.411    1731.7352    389438.58    376595.06    766033.64 
19868000    1255.2253    1733.0527     387987.2    374155.07    762142.27 
19869000    1249.9835    1743.9881    390285.67    372592.63    762878.29 
19870000    1244.6603    1742.9786    386064.08    371005.88    757069.96 
19871000    1249.4708    1742.9176    390348.62    372439.77     762788.4 
19872000    1250.9824    1747.0433    390109.81    372890.38    763000.18 
19873000    1247.4575    1744.2521    387735.82    371839.65    759575.47 
19874000    1253.7713    1738.2401    387357.07    373721.66    761078.74 
19875000    1246.9391    1736.8315    388648.39    371685.14    760333.53 
19876000     1247.309     1739.487    387781.81    371795.39     759577.2 
19877000    1249.0978    1746.0957     389842.3    372328.59    762170.89 
19878000    1247.5209    1734.6346    389935.14    371858.56    761793.71 
19879000    1243.4899    1733.9141    387795.66    370657.03    758452.68 
19880000    1248.8225    1737.3866     387922.5    372246.53    760169.03 
19881000    1251.5738    1737.8678    389728.66    373066.63    762795.29 
19882000    1246.8194    1747.0197    385911.66    371649.48    757561.14 
19883000    1247.0398    1732.3294    388550.04    371715.16     760265.2 
19884000    1249.2619    1744.1639    387988.79    372377.53    760366.32 
19885000     1250.466    1727.5309    387325.11    372736.42    760061.54 
19886000    1251.4809    1720.9164    386127.42    373038.95    759166.37 
19887000    1254.2597    1739.4782    389086.48    373867.24    762953.73 
19888000    1246.3661    1752.7509     387720.7    371514.35    759235.05 
19889000    1250.0787    1738.3878    386965.35    372620.99    759586.34 
19890000    1245.1626    1738.9979    386649.67    371155.61    757805.28 
19891000    1247.6544    1737.5017    389366.99    371898.35    761265.33 
19892000    1244.8371    1747.5491    387775.22    371058.57    758833.79 
19893000    1249.8277    1734.0517    388649.61    372546.18    761195.79 
19894000     1259.274    1741.5061    385883.19    375361.91     761245.1 
19895000    1249.6614    1753.1676     388397.5    372496.59    760894.09 
19896000    1252.0349    1745.7519    388157.11    373204.09     761361.2 
19897000    1254.8199    1734.9993    388898.52    374034.23    762932.76 
19898000    1253.8847    1734.3095    388882.96    373755.49    762638.45 
19899000    1247.6848    1730.6113       387933    371907.42    759840.41 
19900000    1252.6005    1733.1445    387706.56    373372.67    761079.23 
19901000    1256.0013    1738.3098    388970.22     374386.4    763356.62 
19902000    1250.2167    1737.2116    387842.05    372662.13    760504.18 
19903000    1252.0704    1742.4833    387448.43    373214.68    760663.11 
19904000    1243.9213    1739.0073    389752.92    370785.59    760538.51 
19905000    1247.4221    1743.7749    388817.85    371829.12    760646.97 
19906000    1255.4652     1742.595    387501.61    374226.57    761728.19 
19907000    1243.3538     1730.397    385059.45    370616.44    755675.89 
19908000     1245.136    1737.9808    386763.47    371147.66    757911.14 
19909000    1255.8225    1740.6761    386407.12     374333.1    760740.22 
19910000    1248.9198    1740.9122    388554.19    372275.54    760829.73 
19911000    1258.1041    1743.1168    388545.58    375013.18    763558.76 
19912000    1247.0556    1745.3398    386980.27    371719.86    758700.13 
19913000    1252.1008    1738.9413    387980.98    373223.74    761204.72 
19914000    1254.3702    1735.5386    387581.12    373900.18     761481.3 
19915000    1247.9941    1735.3857    387340.36     371999.6    759339.96 
19916000    1253.3736    1737.7421    390121.95    373603.11    763725.06 
19917000    1252.7774    1740.2347    389477.68    373425.41    762903.09 
19918000    1257.5022    1728.7056    386905.31    374833.78    761739.09 
19919000    1250.7076    1740.9564    390427.07    372808.45    763235.52 
19920000    1252.0858    1735.8361    387304.96    373219.28    760524.23 
19921000    1248.5395    1743.6333    387044.73    372162.19    759206.92 
19922000    1249.9649    1735.8104    386819.13    372587.08    759406.21 
19923000    1250.4462    1731.8104    390016.91    372730.53    762747.44 
19924000    1247.6448    1743.1582    387836.18    371895.51    759731.69 
19925000    1252.3266    1738.7494    386546.09    373291.03    759837.13 
19926000    1242.3307    1743.9211    388518.57    370311.47    758830.05 
19927000    1250.1308    1729.8836    388097.91    372636.51    760734.42 
19928000    1248.7901    1740.9021    388451.33    372236.87     760688.2 
19929000    1253.8387    1736.5366    387864.92    373741.76    761606.68 
19930000    1248.2095    1739.3865    389165.65    372063.82    761229.47 
19931000    1250.8011     1747.161    386535.63    372836.31    759371.94 
19932000    1248.1677    1730.7843    390482.42    372051.36    762533.78 
19933000    1248.7598    1737.9087    388180.21    372227.86    760408.07 
19934000    1247.2773    1739.2642    390084.18    371785.95    761870.13 
19935000    1249.7442    1740.9953    390900.53     372521.3    763421.82 
19936000    1252.4024    1735.0258    389926.14    373313.63    763239.76 
19937000    1250.1091    1727.3536    390485.65    372630.05     763115.7 
19938000    1251.9911    1739.8349    389763.57    373191.03     762954.6 
19939000      1247.89    1747.3397    389337.73    371968.59    761306.32 
19940000    1249.4179    1737.5753    388370.85    372424.01    760794.86 
19941000    1248.2678    1744.6833     390824.6    372081.19    762905.79 
19942000    1250.4458    1732.3907    387120.19    372730.42    759850.61 
19943000    1256.6886    1739.0972    388783.84    374591.26     763375.1 
19944000    1252.7343    1741.0124    387648.47    373412.58    761061.04 
19945000    1251.7087    1736.9628    389490.85    373106.87    762597.72 
19946000    1251.4408    1733.8515    387543.73    373027.01    760570.73 
19947000    1250.5883    1743.0207    389613.06    372772.89    762385.96 
19948000    1250.4689    1737.7373    388551.95    372737.29    761289.23 
19949000    1250.1868     1731.886    389375.84    372653.21    762029.05 
19950000    1245.6913    1730.1344    389043.14    371313.21    760356.35 
19951000    1249.1177    1735.1608    388894.96    372334.54     761229.5 
19952000    1250.6166    1746.1468     388911.9    372781.32    761693.22 
19953000    1247.9769    1731.0674     388127.1    371994.48    760121.58 
19954000    1252.4992    1732.8787    388570.49    373342.49    761912.98 
19955000    1248.9043    1733.4689    389867.94    372270.92    762138.87 
19956000    1245.4312    1729.2428    390115.96    371235.68    761351.64 
19957000    1250.7453    1738.8317    389382.72    372819.69    762202.41 
19958000    1253.6232    1745.9277    386869.83    373677.54    760547.37 
19959000    1248.1236    1733.7227    390268.83    372038.22    762307.05 
19960000    1245.2814    1734.3943    389443.75    371191.03    760634.78 
19961000    1250.8185    1745.9302    389749.61     372841.5    762591.11 
19962000    1252.2978    1738.8223    386695.34    373282.45    759977.79 
19963000    1249.2319    1740.7242    387040.02    372368.59    759408.61 
19964000    1249.9245    1734.7551    386735.75    372575.03    759310.77 
19965000    1247.5528    1736.7634    387764.64    371868.09    759632.72 
19966000    1245.8917    1734.9269    389310.75    371372.92    760683.68 
19967000    1246.7577    1740.3359    388359.64    371631.07    759990.71 
19968000    1247.1068    1729.7657    387644.65    371735.13    759379.78 
19969000     1243.913    1741.1861    390151.41    370783.12    760934.53 
19970000    1256.9996    1731.4045    388334.67    374683.95    763018.62 
19971000    1244.8058    1728.3292    387618.34    371049.25    758667.59 
19972000    1256.8781    1742.6936    386325.45    374647.75     760973.2 
19973000     1256.959    1737.4132    386697.29    374671.84    761369.13 
19974000     1243.991    1729.5665    388862.74    370806.39    759669.13 
19975000     1253.488    1739.7962    389393.26    373637.22    763030.49 
19976000    1246.4267    1732.2196     389622.4    371532.42    761154.81 
19977000    1246.9681    1730.2573    388454.63    371693.78    760148.41 
19978000    1249.6638    1738.1808    387184.01    372497.32    759681.33 
19979000    1250.4705    1748.4422    389308.02    372737.79    762045.81 
19980000    1245.4604    1731.8673    388276.89    371244.37    759521.26 
19981000    1246.5908    1741.9331    388027.57    371581.32    759608.89 
19982000    1248.0362    1741.3808     387975.6    372012.18    759987.77 
19983000    1249.3417    1732.8493    388475.29    372401.32    760876.61 
19984000    1247.6876    1741.1674    388535.51    371908.26    760443.77 
19985000    1248.3897    1741.6582    389651.54    372117.54    761769.07 
19986000    1250.2288    1732.3172    387596.36    372665.73    760262.09 
19987000    1249.8746    1745.8521    390388.53    372560.15    762948.68 
19988000    1244.1004    1733.8301    389743.43    370838.99    760582.42 
19989000    1251.5588    1735.2837    389005.51    373062.18    762067.69 
19990000    1248.8897    1728.7709    389585.28    372266.59    761851.87 
19991000    1253.0888    1740.7428    387217.24    373518.23    760735.47 
19992000     1253.389    1753.0265    388094.63    373607.71    761702.34 
19993000    1252.8264    1753.8668    387233.59    373440.03    760673.62 
19994000     1249.908       1741.1    388456.69     372570.1    761026.79 
19995000    1246.0013    1730.5644    388205.59     371405.6    759611.19 
19996000    1249.5095    1748.2706    386742.55    372451.32    759193.87 
19997000    1247.4928    1740.3079    387011.31     371850.2    758861.51 
19998000    1249.4445    1740.3945    389571.56    372431.93     762003.5 
19999000    1246.3975    1738.4935    388521.77     371523.7    760045.47 
20000000    1256.0903    1755.9831    387174.88    374412.92     761587.8 
Loop time of 84035.2 on 48 procs for 20000000 steps with 100000 atoms

Performance: 20.563 ns/day, 1.167 hours/ns, 237.996 timesteps/s
99.6% CPU use with 48 MPI tasks x 1 OpenMP threads

MPI task timing breakdown:
Section |  min time  |  avg time  |  max time  |%varavg| %total
---------------------------------------------------------------
Pair    | 8320.1     | 15392      | 24260      |3409.2 | 18.32
Bond    | 170.49     | 240.79     | 294.57     | 175.3 |  0.29
Neigh   | 50679      | 51272      | 51981      | 157.8 | 61.01
Comm    | 6965.1     | 15696      | 22888      |3312.7 | 18.68
Output  | 3.2508     | 3.6515     | 5.9731     |  22.1 |  0.00
Modify  | 928.34     | 1204.6     | 1413.9     | 348.7 |  1.43
Other   |            | 225.7      |            |       |  0.27

Nlocal:        2083.33 ave        3033 max        1222 min
Histogram: 1 3 7 7 8 8 6 5 2 1
Nghost:        1425.92 ave        2189 max         913 min
Histogram: 2 6 9 9 9 6 3 0 1 3
Neighs:        5376.56 ave        7403 max        2984 min
Histogram: 1 2 4 7 8 5 8 8 2 3

Total # of neighbors = 258075
Ave neighs/atom = 2.5807500
Ave special neighs/atom = 4.4675000
Neighbor list builds = 20000000
Dangerous builds not checked
unfix LAN0
unfix NVE0

write_data data.${name}
write_data data.T2500KCUBR2
Neighbor list info ...
  update every 1 steps, delay 0 steps, check no
  max neighbors/atom: 2000, page size: 100000
  master list distance cutoff = 12.5
  ghost atom cutoff = 12.5
  binsize = 6.25, bins = 80 80 80
  3 neighbor lists, perpetual/occasional/extra = 3 0 0
  (1) pair dpd, perpetual, skip from (2)
      attributes: half, newton on
      pair build: skip
      stencil: none
      bin: none
  (2) pair coul/cut, perpetual
      attributes: half, newton on
      pair build: half/bin/newton
      stencil: half/bin/3d/newton
      bin: standard
  (3) pair lj/cut, perpetual, skip from (2)
      attributes: half, newton on
      pair build: skip
      stencil: none
      bin: none

Total wall time: 23:20:35
