LAMMPS data file via write_data, version 21 Jul 2020, timestep = 1000000

11280 atoms
8 atom types
6048 bonds
8 bond types
7296 angles
12 angle types
10896 dihedrals
15 dihedral types
960 impropers
1 improper types

-105.08202430282267 220.8832318 xlo xhi
-2.0655224585957406 36.6854704654892 ylo yhi
-2.389599154555203 42.36527175677665 zlo zhi

Masses

1 12.0107
2 1.00794
3 32.064999
4 12.0107
5 1.00794
6 0.1
7 55.845
8 196.967

Bond Coeffs # harmonic

1 222 1.81
2 268 1.529
3 340 1.09
4 317 1.51
5 367 1.08
6 469 1.44
7 50 2.06
8 100 1.22494

Angle Coeffs # harmonic

1 58.35 112.7
2 37.5 110.7
3 50 108.6
4 33 107.8
5 35 109.5
6 63 114
7 35 109.5
8 70 126
9 63 108
10 35 126
11 63 126
12 63 180

Improper Coeffs # harmonic

1 5 180

Atoms # full

4408 49 8 0.0 -3.788386329329533 2.277334180722783 2.4225023259126237 0 0 0
4426 49 8 0.0 -3.7883868456475978 0.6627231637031967 -0.37468423043338506 0 0 0
4500 49 8 0.0 -3.788384708140305 3.8919675959264133 -0.37467325455541217 0 0 0
4559 49 8 0.0 -3.7883785302656716 -0.9519084654852081 2.422498301506046 0 0 0
4573 49 8 0.0 -1.0764061745839364 -0.9382985195051686 -1.3898901314149088 0 0 0
4643 49 8 0.0 -0.9938171898103635 0.7319493408226051 1.4177980996001995 0 0 0
4715 49 8 0.0 -1.0800836462029018 3.849279623742485 1.468698441243588 0 0 0
4731 49 8 0.0 -1.0875867926526508 2.1926393457521196 -1.3883258303349069 0 0 0
4797 49 8 0.0 1.6199613798728085 3.8561777459048816 3.2977201061541317 0 0 0
4837 49 8 0.0 1.6256120963035907 2.2297396878164797 0.5802686216348115 0 0 0
4846 49 8 0.0 1.5652253117674866 -1.0351312302180018 0.5136837080452904 0 0 0
4894 49 8 0.0 1.5371864690097723 0.4903081895228652 3.3429061326265725 0 0 0
4710 49 8 0.0 -1.1446755917708906 -0.9683443419074814 4.244767507089029 0 0 0
4751 49 8 0.0 -1.0571956550300523 2.2072037327005805 4.158079873266751 0 0 0
4889 49 8 0.0 1.49658362476727 3.849086184676317 -2.3183911898269844 0 0 0
4852 49 8 0.0 1.635845776466312 0.6997745811386735 -2.291806523554772 0 0 0
4405 49 8 0.0 -3.7883871351553617 7.121212265240629 -0.3746762969021251 0 0 0
4462 49 8 0.0 -3.7883860623107504 5.5065964706155635 2.4224947232380543 0 0 0
4474 49 8 0.0 -3.7883897195413576 8.735843387020987 2.4225093064901184 0 0 0
4502 49 8 0.0 -3.7883892873535054 10.35046153264328 -0.37467567906790994 0 0 0
4574 49 8 0.0 -1.158981073845589 5.4681384756023705 -1.302001191943424 0 0 0
4619 49 8 0.0 -1.1937527613744707 7.102421101253276 1.4295204274522975 0 0 0
4654 49 8 0.0 -1.0300105864955893 8.656492484193189 -1.3232606165028316 0 0 0
4727 49 8 0.0 -1.1639964000729393 10.275333127227277 1.4353662572082557 0 0 0
4841 49 8 0.0 1.5480444277604892 8.664758600859694 0.5473863840883778 0 0 0
4895 49 8 0.0 1.5319342744275348 10.310919948387836 3.2800255537491023 0 0 0
4924 49 8 0.0 1.4688441851359648 5.353344640217464 0.4111059794652919 0 0 0
4934 49 8 0.0 1.4383106677306527 6.9665744547402815 3.352474528863406 0 0 0
4599 49 8 0.0 -1.0768130272782488 5.343632101215687 4.184981631223276 0 0 0
4669 49 8 0.0 -1.2702827294565242 8.646975880223405 4.266522948102618 0 0 0
4908 49 8 0.0 1.655249019864188 10.22708714671361 -2.260299267983494 0 0 0
4925 49 8 0.0 1.5829336831028467 7.0527575474228446 -2.335159540270356 0 0 0
4383 49 8 0.0 -3.7883966593717444 11.965086699742464 2.422497838293539 0 0 0
4412 49 8 0.0 -3.7883935198606182 16.80896786806462 -0.37468040749597326 0 0 0
4441 49 8 0.0 -3.788393004338775 13.57971278261202 -0.37467838125968966 0 0 0
4536 49 8 0.0 -3.7883837499266755 15.194334269325028 2.422501903811381 0 0 0
4578 49 8 0.0 -1.0365355884970116 16.871912028976553 1.5564935206552455 0 0 0
4620 49 8 0.0 -1.0538390746807569 15.162799366474731 -1.2538366742651148 0 0 0
4683 49 8 0.0 -1.1013280366180451 13.584950346699861 1.4806873985618978 0 0 0
4689 49 8 0.0 -1.0752958922898412 11.847334670565282 -1.319158612821767 0 0 0
4763 49 8 0.0 1.5579596927102113 13.539885439500939 3.3400359795669368 0 0 0
4806 49 8 0.0 1.4595169522237046 11.924649382374287 0.5336994642117601 0 0 0
4813 49 8 0.0 1.479457583156237 15.11873600880279 0.6012878237287966 0 0 0
4890 49 8 0.0 1.5440378116091202 16.787501006129386 3.43483311712919 0 0 0
4575 49 8 0.0 -1.2167508668580012 15.163109391337262 4.135439147537394 0 0 0
4600 49 8 0.0 -1.0422486477680628 12.000862025637943 4.2704678566840535 0 0 0
4855 49 8 0.0 1.6082263250918956 16.70915354140206 -2.2727567490728857 0 0 0
4935 49 8 0.0 1.5404408860043508 13.546688500452609 -2.3043489713791647 0 0 0
4409 49 8 0.0 -3.7883883411630053 -0.9519088182070832 8.016852020814838 0 0 0
4497 49 8 0.0 -3.788382784743161 0.6627133092239829 5.219673294045663 0 0 0
4510 49 8 0.0 -3.788386470282097 3.8919653458285315 5.219678325591681 0 0 0
4533 49 8 0.0 -3.788383405622387 2.2773336687703165 8.016854831523368 0 0 0
4392 49 8 0.0 -3.788383672426643 0.6627135294429563 10.814035519755345 0 0 0
4436 49 8 0.0 -3.78838580761847 3.8919664270783687 10.814034420612066 0 0 0
4597 49 8 0.0 -1.0645463036155989 0.5689486485716261 6.955719073934728 0 0 0
4610 49 8 0.0 -1.0628987163082244 3.894204864303878 7.073488076205146 0 0 0
4612 49 8 0.0 -1.198509080571122 2.2556319074852946 9.848339093791745 0 0 0
4737 49 8 0.0 -1.0370559846496246 -1.000923177600724 9.849740894526496 0 0 0
4769 49 8 0.0 1.4755791037357158 3.8021996408396066 8.87057911800124 0 0 0
4800 49 8 0.0 1.4961218182741607 0.6758209655886758 9.023437825061874 0 0 0
4853 49 8 0.0 1.541004826445201 2.1001812323948115 6.037352026687457 0 0 0
4880 49 8 0.0 1.525198647384017 -1.0381036421232488 6.141821077227847 0 0 0
4834 49 8 0.0 1.5825949034605562 2.1822226347838947 11.772104285100786 0 0 0
4943 49 8 0.0 1.6452113532039598 -0.8764129228367215 11.811212126589359 0 0 0
4372 49 8 0.0 -3.7883926715257235 7.121208976992023 5.219685956107244 0 0 0
4440 49 8 0.0 -3.788394315798087 10.350467263253545 5.219682495295795 0 0 0
4527 49 8 0.0 -3.7883826496371253 5.506588694999834 8.016861363168253 0 0 0
4555 49 8 0.0 -3.7883822615271088 8.735845913656437 8.01686106857363 0 0 0
4439 49 8 0.0 -3.78838801947228 10.350462252361643 10.814036590836965 0 0 0
4456 49 8 0.0 -3.788382909879925 7.121209677787469 10.814036780373826 0 0 0
4627 49 8 0.0 -1.0269625759981262 6.9854776286305205 7.11732242110115 0 0 0
4680 49 8 0.0 -1.0498291209522275 8.634799900241484 9.790959095262467 0 0 0
4698 49 8 0.0 -1.0544285298856948 5.438106756605675 9.881260365278981 0 0 0
4750 49 8 0.0 -1.126877436740996 10.333095143208103 6.9645187919386045 0 0 0
4811 49 8 0.0 1.554455517282855 5.425505499735188 6.011768517498439 0 0 0
4828 49 8 0.0 1.5576912672395486 6.972742968369637 8.90034874030254 0 0 0
4848 49 8 0.0 1.5523875894496075 10.256986508315105 8.830170098382743 0 0 0
4882 49 8 0.0 1.5583629431141257 8.630483057980063 6.04990403309136 0 0 0
4792 49 8 0.0 1.6749385425150163 8.672023498689876 11.619201323871332 0 0 0
4929 49 8 0.0 1.537504907673728 5.479440232195684 11.776821490546956 0 0 0
4404 49 8 0.0 -3.7883899709696536 11.965093888946816 8.016859020146212 0 0 0
4501 49 8 0.0 -3.788385129711821 15.194347305420166 8.016863659777703 0 0 0
4523 49 8 0.0 -3.7883851607040206 16.808965285612626 5.2196879820930775 0 0 0
4530 49 8 0.0 -3.788387841304534 13.57971432293179 5.219687016734967 0 0 0
4495 49 8 0.0 -3.788380340479891 16.80896884105967 10.81404055103234 0 0 0
4508 49 8 0.0 -3.7883853448800604 13.579715266438669 10.81402862410743 0 0 0
4568 49 8 0.0 -1.1602747729877378 16.85238779393834 7.069747759096195 0 0 0
4650 49 8 0.0 -1.0687383317881807 11.919993682686185 9.812808980783155 0 0 0
4659 49 8 0.0 -1.14585857572205 15.135547667000562 9.881699788885895 0 0 0
4702 49 8 0.0 -1.1623211174835815 13.591663455104545 6.992651316180924 0 0 0
4795 49 8 0.0 1.5985602755146942 16.817266104433592 8.95508649781268 0 0 0
4839 49 8 0.0 1.5095484583217451 15.207705680020842 6.141125727362989 0 0 0
4874 49 8 0.0 1.5988228268966593 13.581089641017929 8.911625329096365 0 0 0
4905 49 8 0.0 1.5337159499454653 12.000667162284138 6.180000276151853 0 0 0
4788 49 8 0.0 1.5621981211355669 11.801407320156398 11.592490344470109 0 0 0
4858 49 8 0.0 1.4575508124730183 15.14902029616535 11.689994421878074 0 0 0
4375 49 8 0.0 -3.7883821998144764 3.891962630878383 16.40839147492623 0 0 0
4433 49 8 0.0 -3.788378822364196 -0.9519060002837884 13.611211380468273 0 0 0
4486 49 8 0.0 -3.788379967385588 0.662710013913162 16.40839388800562 0 0 0
4493 49 8 0.0 -3.788376554159082 2.277340450625241 13.611210506114015 0 0 0
4435 49 8 0.0 -3.788378964354877 -0.9519129042409895 19.20557619068963 0 0 0
4534 49 8 0.0 -3.788378384788645 2.2773379818956196 19.205569983388077 0 0 0
4566 49 8 0.0 -1.0315425549720698 3.741000177863019 12.629265394380095 0 0 0
4719 49 8 0.0 -1.1282818972704878 0.6847466107909614 12.591123931042942 0 0 0
4692 49 8 0.0 -1.1758204296431054 -0.966645150710855 15.358263497260548 0 0 0
4734 49 8 0.0 -1.0568077454914768 2.1368103659083793 15.423824178223015 0 0 0
4794 49 8 0.0 1.5912253121195477 3.7828363471678332 14.462648971790179 0 0 0
4923 49 8 0.0 1.683983648355133 0.5951649379138982 14.569828423500349 0 0 0
4621 49 8 0.0 -1.0837284062613284 0.6850958291269106 18.38159153660813 0 0 0
4695 49 8 0.0 -1.1411881548261082 3.8643442691495085 18.26842174396947 0 0 0
4801 49 8 0.0 1.3723337641795061 -0.9648748491523385 17.187130639234383 0 0 0
4907 49 8 0.0 1.6000068567986312 2.2751505851175495 17.281743363342454 0 0 0
4371 49 8 0.0 -3.788387803799904 7.121213355306348 16.408389402163237 0 0 0
4431 49 8 0.0 -3.7883820523729486 5.506588483591093 13.611214585073103 0 0 0
4438 49 8 0.0 -3.788379332486387 10.350460541301011 16.408394465146134 0 0 0
4505 49 8 0.0 -3.788382672029327 8.735837861028784 13.611212698967469 0 0 0
4499 49 8 0.0 -3.7883811746526908 5.506594377240055 19.20557117460282 0 0 0
4535 49 8 0.0 -3.7883773900054365 8.735842429015689 19.20556810397924 0 0 0
4682 49 8 0.0 -1.1672102827017532 7.0673149082579965 12.636636509259388 0 0 0
4637 49 8 0.0 -1.2814554139542558 10.330949188613605 12.726207561452146 0 0 0
4647 49 8 0.0 -1.014431707004621 8.626281384373218 15.508343685885478 0 0 0
4726 49 8 0.0 -0.9681852995244099 5.4541500790163155 15.413092105603308 0 0 0
4876 49 8 0.0 1.5464179459416822 10.243576863028082 14.406922477493383 0 0 0
4937 49 8 0.0 1.5377976406900364 7.035359549701404 14.363663531751904 0 0 0
4639 49 8 0.0 -0.9674101886399198 7.0748553296850405 18.158302135506936 0 0 0
4664 49 8 0.0 -1.1770097209877721 10.370142452279907 18.288017627098824 0 0 0
4781 49 8 0.0 1.6151716001233847 8.637377144268076 17.16878483819102 0 0 0
4822 49 8 0.0 1.6109064500007377 5.384892817419038 17.28708516764173 0 0 0
4386 49 8 0.0 -3.7883836132770004 15.194344743247472 13.611217894112505 0 0 0
4417 49 8 0.0 -3.7883852285863426 11.965093942935166 13.611215148211347 0 0 0
4507 49 8 0.0 -3.788381847895996 13.57971465889181 16.408399352726565 0 0 0
4509 49 8 0.0 -3.788380829175005 16.808959956050444 16.408399786436338 0 0 0
4381 49 8 0.0 -3.78839314432804 11.965085027222434 19.20557583368447 0 0 0
4443 49 8 0.0 -3.7883895639357243 15.194334812353642 19.20557593139594 0 0 0
4723 49 8 0.0 -1.0569415092727836 13.523391289264683 18.215633411351494 0 0 0
4590 49 8 0.0 -1.2116139065896487 15.158623234183665 15.45550655495716 0 0 0
4886 49 8 0.0 1.5441814014233914 15.13741031858779 17.293347659687708 0 0 0
4900 49 8 0.0 1.4647028755244988 13.613126590609765 14.539444537757719 0 0 0
4709 49 8 0.0 -1.0428430756066238 11.944621326484153 15.473534126343045 0 0 0
4624 49 8 0.0 -1.1157048000541008 16.667165891137724 12.741507213816062 0 0 0
4697 49 8 0.0 -1.103614229064591 16.830386788401054 18.26847091377251 0 0 0
4944 49 8 0.0 1.4450149962984569 16.734275561056965 14.52841476948631 0 0 0
4823 49 8 0.0 1.6047553616898285 11.904784419100125 17.305939895825897 0 0 0
4629 49 8 0.0 -1.228748389265704 13.559139030543244 12.744245022544819 0 0 0
4380 49 8 0.0 -3.788388751641714 3.891958995216593 22.002747596578082 0 0 0
4422 49 8 0.0 -3.7883819354013557 0.6627087756650653 22.00275090380515 0 0 0
4388 49 8 0.0 -3.7883859391848427 -0.9519106806065658 24.79992957382433 0 0 0
4459 49 8 0.0 -3.7883833254402335 2.277341089055648 24.79993340431376 0 0 0
4644 49 8 0.0 -1.0765391050849245 2.2864902552248663 21.198476899818992 0 0 0
4752 49 8 0.0 -1.0938556823707775 -1.0020473895057314 21.039613169121495 0 0 0
4790 49 8 0.0 1.4488678208802972 -1.0074658595701367 22.97780035021736 0 0 0
4840 49 8 0.0 1.5804099774039864 2.1472512803700927 22.9144793434648 0 0 0
4593 49 8 0.0 -1.0429439872524382 2.12721717283315 26.559098302677974 0 0 0
4606 49 8 0.0 -1.121738153058734 3.8733808206134683 23.80620173170682 0 0 0
4618 49 8 0.0 -1.0784753937368237 0.6660234149947573 23.897020595647007 0 0 0
4693 49 8 0.0 -1.088677881938268 -1.0492204918556345 26.559230439926818 0 0 0
4778 49 8 0.0 1.6758702406496644 0.7268403042201147 25.792639660861383 0 0 0
4850 49 8 0.0 1.5209383597605486 3.7556301740135387 25.594535618069184 0 0 0
4833 49 8 0.0 1.5781850900663186 0.553265959516314 20.117963711849487 0 0 0
4918 49 8 0.0 1.5684536876094382 3.8024776510785663 20.146925024271397 0 0 0
4482 49 8 0.0 -3.7883825621057357 7.1212189154600285 22.002747744089216 0 0 0
4514 49 8 0.0 -3.7883807428470546 10.350463597920209 22.00274784123293 0 0 0
4418 49 8 0.0 -3.7883847563138966 5.506590660867567 24.799928868959903 0 0 0
4540 49 8 0.0 -3.7883802614615694 8.73583455228357 24.799923031866697 0 0 0
4614 49 8 0.0 -1.0780405814769052 5.571359118526739 20.937657502963454 0 0 0
4742 49 8 0.0 -1.1914952256761264 8.767549047131729 20.977753991251873 0 0 0
4926 49 8 0.0 1.538483805085039 8.743563757131179 22.853181988854864 0 0 0
4939 49 8 0.0 1.5116400563874246 5.4774840076048905 22.84661176769207 0 0 0
4577 49 8 0.0 -1.1140710761599606 8.680590856725393 26.740487767402566 0 0 0
4631 49 8 0.0 -1.2017434647892384 5.454013382365539 26.692239654456145 0 0 0
4652 49 8 0.0 -1.0310110745403078 10.310582894923064 23.936870816979148 0 0 0
4671 49 8 0.0 -1.0404817546782785 7.079862205228845 23.88000084217429 0 0 0
4830 49 8 0.0 1.5187175413751273 10.268788203052962 25.799330354982285 0 0 0
4903 49 8 0.0 1.5322839368550372 7.096655125761903 25.712844804252896 0 0 0
4933 49 8 0.0 1.5511614123368231 10.178240245793596 20.096500470558805 0 0 0
4849 49 8 0.0 1.5352070776037863 7.122098293189819 20.07960948848377 0 0 0
4506 49 8 0.0 -3.78838688955032 13.57970714940916 22.00275096204562 0 0 0
4525 49 8 0.0 -3.788379754190355 16.808962661505536 22.00275412814157 0 0 0
4451 49 8 0.0 -3.7883855304426968 11.965080933595049 24.79993061446345 0 0 0
4468 49 8 0.0 -3.788383941528121 15.194335229362181 24.799935851415714 0 0 0
4656 49 8 0.0 -1.1571024286723226 15.115500472651556 21.015641945524422 0 0 0
4696 49 8 0.0 -1.1141090113841527 11.832477154956146 21.142995220690814 0 0 0
4768 49 8 0.0 1.5202977438494367 15.12780298333723 22.992934845328712 0 0 0
4870 49 8 0.0 1.5561191238539243 11.900759393478463 22.978942399157173 0 0 0
4570 49 8 0.0 -1.1917960362746136 11.908762155374644 26.673002245223792 0 0 0
4673 49 8 0.0 -1.1440896134894758 13.50794442667529 23.894279550979547 0 0 0
4688 49 8 0.0 -1.0958969012478796 16.923347086239996 23.795703939502665 0 0 0
4701 49 8 0.0 -1.0061072478237196 15.122296987510188 26.631614799558307 0 0 0
4799 49 8 0.0 1.5890333642404166 13.50578263998293 25.75871669856016 0 0 0
4866 49 8 0.0 1.4686736800844724 16.81982499801714 25.677552297703823 0 0 0
4766 49 8 0.0 1.608899956945566 16.656198794108477 20.113506315516208 0 0 0
4756 49 8 0.0 1.4855560488545407 13.45953432102455 20.0709281485523 0 0 0
4396 49 8 0.0 -3.7883889402544892 0.6627153475076487 27.597109708172482 0 0 0
4477 49 8 0.0 -3.7883811172716357 3.8919651008205323 27.597107340910238 0 0 0
4373 49 8 0.0 -3.7883896280924425 0.6627153175533294 33.19146915275548 0 0 0
4400 49 8 0.0 -3.7883906258381717 3.891966360463762 33.19146950683547 0 0 0
4415 49 8 0.0 -3.7883888132970274 -0.9519035944494006 30.394286538761545 0 0 0
4548 49 8 0.0 -3.7883771508228263 2.27734538122148 30.394286772692038 0 0 0
4703 49 8 0.0 -1.1216070234162778 0.679526894932464 29.480420863680543 0 0 0
4720 49 8 0.0 -1.1683664390446145 3.831460113658985 29.412684978911937 0 0 0
4802 49 8 0.0 1.6047808513021171 2.1718477601266213 28.586429594342572 0 0 0
4919 49 8 0.0 1.4996079439108458 -1.0222905295293483 28.469038363385426 0 0 0
4657 49 8 0.0 -1.1556423574930335 -0.9898643445068173 32.283753479394 0 0 0
4721 49 8 0.0 -1.109834740523479 2.3894681294430153 32.2451899165846 0 0 0
4757 49 8 0.0 1.5340311812692953 3.9087049941343586 31.253329138790154 0 0 0
4871 49 8 0.0 1.5434981204141733 2.3428636857942715 34.08135514841479 0 0 0
4885 49 8 0.0 1.5915565057454746 0.7670255441462502 31.324186965971016 0 0 0
4906 49 8 0.0 1.508079501130301 -0.9534009124326476 34.11955887444762 0 0 0
4397 49 8 0.0 -3.7883847076116783 7.121210895360581 27.597109576997592 0 0 0
4448 49 8 0.0 -3.7883874421504324 10.35046597800141 27.597105488332016 0 0 0
4393 49 8 0.0 -3.788389027171691 10.35046167200328 33.19147418720512 0 0 0
4473 49 8 0.0 -3.788378095511911 5.506586319192596 30.394291047349174 0 0 0
4503 49 8 0.0 -3.788377350458565 8.735834851336891 30.394291420382014 0 0 0
4515 49 8 0.0 -3.7883820718573378 7.121209932966562 33.19146608682252 0 0 0
4598 49 8 0.0 -1.1494867947208947 7.104216561342693 29.45877241735966 0 0 0
4679 49 8 0.0 -1.0982841987717316 10.298533764294517 29.457903377064447 0 0 0
4805 49 8 0.0 1.578496588393166 8.714375939068988 28.54194304464765 0 0 0
4810 49 8 0.0 1.3854295756523745 5.280609088989635 28.369567877964478 0 0 0
4729 49 8 0.0 -1.075705892608996 5.493690814430129 32.16641155519031 0 0 0
4747 49 8 0.0 -1.1541432864950123 8.847327309977427 32.21409391297973 0 0 0
4770 49 8 0.0 1.4913661198421344 8.736752787812817 34.08066547323407 0 0 0
4780 49 8 0.0 1.5726584931366565 5.5785249294004595 34.06820054042342 0 0 0
4845 49 8 0.0 1.5062991820173524 7.000680726795965 31.190999092801512 0 0 0
4942 49 8 0.0 1.4878928045503796 10.226055347091382 31.370837247990583 0 0 0
4416 49 8 0.0 -3.788386049927696 16.808960844050798 27.59711823918112 0 0 0
4425 49 8 0.0 -3.7883894857993003 13.579711984257896 27.59711717767858 0 0 0
4384 49 8 0.0 -3.788392706425698 13.579711484686984 33.191472618172355 0 0 0
4538 49 8 0.0 -3.7883869067454117 16.80895158204252 33.19147461340081 0 0 0
4542 49 8 0.0 -3.7883863138855745 15.194335139800199 30.394289121490342 0 0 0
4544 49 8 0.0 -3.788380217974968 11.965077734362934 30.39429505144211 0 0 0
4571 49 8 0.0 -1.0700048367142367 13.65346999102432 29.455999189009894 0 0 0
4706 49 8 0.0 -1.1924043537472075 16.785257510327295 29.44634861076919 0 0 0
4883 49 8 0.0 1.5845025828054609 15.111557824049303 28.53484319479675 0 0 0
4930 49 8 0.0 1.5305072324723863 11.842667584912451 28.504814833036754 0 0 0
4587 49 8 0.0 -1.0414772894715567 11.910391544375717 32.2892585032756 0 0 0
4636 49 8 0.0 -1.1468824817914998 15.160106792062901 32.24923704840933 0 0 0
4851 49 8 0.0 1.4975930890125142 13.478116011162761 31.347906163077507 0 0 0
4909 49 8 0.0 1.4552814055698147 16.6387740692064 31.36025123704432 0 0 0
4916 49 8 0.0 1.428523186683463 15.116996917697097 34.2160490843162 0 0 0
4927 49 8 0.0 1.6136345388247852 11.902068186592645 34.091944552067744 0 0 0
4394 49 8 0.0 -3.7883834695009506 -0.9519034204456812 35.988648308464256 0 0 0
4407 49 8 0.0 -3.7883863951327386 2.2773470087018555 41.583009164323734 0 0 0
4427 49 8 0.0 -3.788385061715631 0.6627167517491144 38.78583239331728 0 0 0
4471 49 8 0.0 -3.788385339642225 -0.9519057189757522 41.583008348278206 0 0 0
4549 49 8 0.0 -3.7883818686913733 3.8919576113509953 38.7858327014837 0 0 0
4551 49 8 0.0 -3.7883847701344444 2.277345509328279 35.98864607893833 0 0 0
4585 49 8 0.0 -1.1723875092517246 0.658618840701997 35.003033550284194 0 0 0
4609 49 8 0.0 -1.0744824749242627 3.899917179583875 35.141190734884205 0 0 0
4645 49 8 0.0 -1.064277590924381 2.3034353964629077 37.869629717893766 0 0 0
4672 49 8 0.0 -1.090401432665326 0.5545723905114475 40.50155844278837 0 0 0
4686 49 8 0.0 -1.154431202788378 3.846159157104216 40.63941676776793 0 0 0
4738 49 8 0.0 -1.1518189389848765 -0.9261520761510551 37.7530200552046 0 0 0
4760 49 8 0.0 1.5843002660482952 0.6319904758099925 36.958680980699064 0 0 0
4814 49 8 0.0 1.597189774464696 -1.0091595259924275 39.578356711121 0 0 0
4818 49 8 0.0 1.6633628212470926 3.9205753188068178 36.829466236718645 0 0 0
4913 49 8 0.0 1.555392464049984 2.324921000934561 39.695325561198544 0 0 0
4424 49 8 0.0 -3.7883930010580182 10.350460623561125 38.78583529884846 0 0 0
4457 49 8 0.0 -3.788390407342557 8.735837551362888 41.58301514265462 0 0 0
4483 49 8 0.0 -3.7883872327057646 8.735836968331494 35.98864148158821 0 0 0
4484 49 8 0.0 -3.788386844302399 5.506587481191909 41.583012302613184 0 0 0
4553 49 8 0.0 -3.7883830035500154 5.506588603790355 35.98865271545796 0 0 0
4556 49 8 0.0 -3.788383078371524 7.1212143075792484 38.78583081175148 0 0 0
4735 49 8 0.0 -1.1297727665749069 10.365755148537552 35.175192353791196 0 0 0
4708 49 8 0.0 -1.0587611570331357 7.156926773343054 35.15181446244996 0 0 0
4583 49 8 0.0 -1.070833427833355 10.329702324977212 40.63332101713256 0 0 0
4584 49 8 0.0 -1.1786822230212555 7.108302122015663 40.60168661306081 0 0 0
4611 49 8 0.0 -1.0221312652247918 8.730037250131945 37.928137429604966 0 0 0
4711 49 8 0.0 -1.150935258358028 5.556598326135145 37.905486476893195 0 0 0
4786 49 8 0.0 1.551777768332405 7.182479262364989 36.81882226011527 0 0 0
4860 49 8 0.0 1.5110066681299499 10.292998164952921 36.95117033772571 0 0 0
4879 49 8 0.0 1.6495762208193154 8.781437779673167 39.7210102650671 0 0 0
4896 49 8 0.0 1.432328914453509 5.4515291876974015 39.54818699674947 0 0 0
4385 49 8 0.0 -3.7883879225768444 11.965080050856054 35.988654990281404 0 0 0
4411 49 8 0.0 -3.7883940481758924 11.96508685674501 41.58301764046338 0 0 0
4452 49 8 0.0 -3.7883853429725587 15.19433874031055 35.988656484572125 0 0 0
4460 49 8 0.0 -3.7883949175254363 15.194336150839243 41.58301885099835 0 0 0
4519 49 8 0.0 -3.788388268262041 16.808962143633376 38.78583463830125 0 0 0
4528 49 8 0.0 -3.7883850972825264 13.57971816818609 38.78583498888285 0 0 0
4884 49 8 0.0 1.6776258504418617 13.42211210076338 36.87834147232658 0 0 0
4642 49 8 0.0 -1.167416645858775 16.770683555348075 35.0349141371288 0 0 0
4605 49 8 0.0 -1.1108627020385338 13.636322991705464 40.622133147194766 0 0 0
4921 49 8 0.0 1.4917724672921784 16.767410634813622 36.849051623374734 0 0 0
4651 49 8 0.0 -1.0782196428244217 11.94828276780757 37.93741987539607 0 0 0
4690 49 8 0.0 -1.0888461691007878 15.104055856036418 37.789578657129205 0 0 0
4567 49 8 0.0 -1.0548264238732497 16.855517496522403 40.640215580965254 0 0 0
4809 49 8 0.0 1.5798467258549003 11.925779886010561 39.74129247232316 0 0 0
4869 49 8 0.0 1.6351794174320409 15.101050829132786 39.660380084554795 0 0 0
4653 49 8 0.0 -1.0940841943765416 13.51754246794455 35.023765810576535 0 0 0
4387 49 8 0.0 -3.7883894256604416 18.423589064345386 2.4225070103012505 0 0 0
4488 49 8 0.0 -3.788381654744282 23.267465367968367 -0.3746762495225456 0 0 0
4491 49 8 0.0 -3.78838699144263 20.038214333729766 -0.3746827849548502 0 0 0
4547 49 8 0.0 -3.7883756989843955 21.65283700099052 2.422500632167546 0 0 0
4655 49 8 0.0 -1.116584440039636 21.641285915803152 -1.3285014479346773 0 0 0
4684 49 8 0.0 -1.010838427564271 20.013886249685772 1.5392617790295045 0 0 0
4705 49 8 0.0 -1.0143062174626662 18.38498600683463 -1.3071464854775217 0 0 0
4707 49 8 0.0 -1.1409089069234397 23.30832766208302 1.407415392242607 0 0 0
4779 49 8 0.0 1.468872324451921 23.21280237711979 3.268282541906179 0 0 0
4861 49 8 0.0 1.5243560130442335 18.41320196901153 0.4321268545920554 0 0 0
4910 49 8 0.0 1.5951817649055675 21.595758971644642 0.46196257582811806 0 0 0
4936 49 8 0.0 1.49953748114966 20.00233816975509 3.4525665535089867 0 0 0
4604 49 8 0.0 -1.1400493013947044 18.453939802271304 4.282547519291835 0 0 0
4741 49 8 0.0 -1.1673253885259067 21.666769397499266 4.281308405545905 0 0 0
4836 49 8 0.0 1.6174546905752254 19.985318258826002 -2.269189320007339 0 0 0
4754 49 8 0.0 1.5924284205150716 23.24063093815793 -2.2955574232689973 0 0 0
4402 49 8 0.0 -3.788381676486787 28.111341648613628 2.422501861991482 0 0 0
4445 49 8 0.0 -3.7883822295047547 29.72595598898851 -0.37467829426693644 0 0 0
4489 49 8 0.0 -3.7883764598123792 26.496711019674517 -0.3746828889479464 0 0 0
4552 49 8 0.0 -3.788375846150684 24.882088958389282 2.4225016272232365 0 0 0
4592 49 8 0.0 -1.0837433196806259 29.76723377512054 1.4999596539561235 0 0 0
4603 49 8 0.0 -1.1193603386478579 26.398311177588997 1.48864946994009 0 0 0
4615 49 8 0.0 -1.0819516568278387 24.717183694078006 -1.4360257744425218 0 0 0
4660 49 8 0.0 -1.0959848753597103 28.10984212181476 -1.3283250546999188 0 0 0
4767 49 8 0.0 1.5299493738845265 29.807346703867132 3.247292548738228 0 0 0
4863 49 8 0.0 1.5039508557441759 26.415642851855917 3.337178682689104 0 0 0
4911 49 8 0.0 1.4889495589322985 28.096642166814352 0.5183970538141223 0 0 0
4914 49 8 0.0 1.5554225453873456 24.874427361688134 0.6456396798505405 0 0 0
4594 49 8 0.0 -1.1654452251205203 28.02451566322064 4.163133422557715 0 0 0
4739 49 8 0.0 -1.177573036159861 24.814128325307312 4.351897634438274 0 0 0
4881 49 8 0.0 1.531400832491759 26.484283593602754 -2.269111320473939 0 0 0
4803 49 8 0.0 1.649122169408968 29.67043222687158 -2.1781517520977878 0 0 0
4370 49 8 0.0 -3.7883885861125988 34.56983484009322 2.422497337061113 0 0 0
4464 49 8 0.0 -3.788385957583746 32.95520655409029 -0.37468019996056545 0 0 0
4518 49 8 0.0 -3.7883866606378884 36.18446516231943 -0.3746787083201514 0 -1 0
4543 49 8 0.0 -3.788379241913185 31.3405821994143 2.4224983427661897 0 0 0
4564 49 8 0.0 -1.0687566097467809 31.33969176589153 -1.4207167883218959 0 0 0
4565 49 8 0.0 -1.1215278719167185 32.977058835121625 1.4282377734636786 0 0 0
4617 49 8 0.0 -1.0542655725467103 34.6514562135161 -1.3228451715567817 0 0 0
4663 49 8 0.0 -1.0514031991682253 36.19474980350606 1.4528583506149688 0 -1 0
4782 49 8 0.0 1.5464347785089956 34.61350984439371 0.5018795999285807 0 0 0
4842 49 8 0.0 1.5607746570033487 32.90625294926169 3.280423320029119 0 0 0
4854 49 8 0.0 1.4905445575235483 36.04509564166028 3.4958333526964225 0 -1 0
4875 49 8 0.0 1.5543986432530457 31.406941905865946 0.5084854760370092 0 0 0
4628 49 8 0.0 -1.1148586024132023 31.379187428147006 4.260392951271277 0 0 0
4722 49 8 0.0 -1.1228220213784725 34.55285065013971 4.1767554426116975 0 0 0
4868 49 8 0.0 1.524619675464915 36.17161513565453 -2.2821364114513125 0 -1 0
4816 49 8 0.0 1.6444228707196396 32.97762568356327 -2.3517997289426895 0 0 0
4414 49 8 0.0 -3.788382027924239 23.267465804723177 5.2196844983231845 0 0 0
4463 49 8 0.0 -3.7883871679778798 20.03821809722971 5.219680921546749 0 0 0
4480 49 8 0.0 -3.788382320815529 21.65283304019365 8.016864544499384 0 0 0
4558 49 8 0.0 -3.7883823522874485 18.423592674659698 8.016862212085915 0 0 0
4498 49 8 0.0 -3.7883818693882048 20.03821706543267 10.814042820087264 0 0 0
4524 49 8 0.0 -3.7883774185376033 23.26746864066001 10.814038258938597 0 0 0
4596 49 8 0.0 -1.124486220059945 21.605447742166472 9.857615498894905 0 0 0
4602 49 8 0.0 -1.097131222875526 18.415814233704246 9.954488020690286 0 0 0
4635 49 8 0.0 -1.0804184188929096 23.258726638886035 7.255314067985319 0 0 0
4736 49 8 0.0 -1.1193720403191592 20.036186559224227 7.039160099970022 0 0 0
4765 49 8 0.0 1.4365371331975783 21.591607819970694 6.166365547616994 0 0 0
4775 49 8 0.0 1.523665165223185 18.458391784604068 6.148864417747303 0 0 0
4784 49 8 0.0 1.5538498983373956 23.120471281160984 8.960383186517708 0 0 0
4820 49 8 0.0 1.577989425430062 19.94362840798583 8.963336346334717 0 0 0
4831 49 8 0.0 1.5976620118060867 18.42531897395452 11.76516319392148 0 0 0
4872 49 8 0.0 1.5093364446072892 21.608177833933482 11.718739090359241 0 0 0
4403 49 8 0.0 -3.788377180292312 24.882090755728743 8.016859557085306 0 0 0
4421 49 8 0.0 -3.78837586117508 29.7259583333359 5.2196813664744885 0 0 0
4423 49 8 0.0 -3.7883782699864192 26.49671003282167 5.219673667248882 0 0 0
4494 49 8 0.0 -3.788371122286039 28.111338122743728 8.016852037525034 0 0 0
4401 49 8 0.0 -3.7883772268999234 26.496707940946653 10.814042266173047 0 0 0
4458 49 8 0.0 -3.7883801002024233 29.725956866173036 10.81403588952743 0 0 0
4622 49 8 0.0 -1.1053762608886073 28.121933646449435 9.872737851778249 0 0 0
4648 49 8 0.0 -1.1403311355706465 26.48976752642425 7.098113380644908 0 0 0
4668 49 8 0.0 -1.0658430122769749 24.87273654099922 9.980990772907434 0 0 0
4740 49 8 0.0 -1.1621866012051398 29.667726761738674 7.057081964619856 0 0 0
4783 49 8 0.0 1.45212203847969 28.061200565422613 6.032163251360131 0 0 0
4892 49 8 0.0 1.5547515290119784 24.662904291964825 6.183346553080446 0 0 0
4915 49 8 0.0 1.5135891748984314 26.384449379628098 8.863556856617958 0 0 0
4940 49 8 0.0 1.4637870964794386 29.546899661971704 8.967648572895797 0 0 0
4812 49 8 0.0 1.5395048213043976 24.96899150795742 11.793691442152703 0 0 0
4843 49 8 0.0 1.4920026637038493 28.11640150070822 11.834803149878319 0 0 0
4437 49 8 0.0 -3.788382485324266 31.34057840994223 8.016861692777928 0 0 0
4450 49 8 0.0 -3.788382253539855 36.184452620590676 5.219679739118366 0 -1 0
4469 49 8 0.0 -3.788377854011425 32.95520477207227 5.2196778691785495 0 0 0
4479 49 8 0.0 -3.78838437086395 34.56982556343213 8.016860187077762 0 0 0
4449 49 8 0.0 -3.7883807331419077 36.18445672820543 10.814034062137496 0 -1 0
4522 49 8 0.0 -3.7883812703222706 32.95520648869647 10.81403444458695 0 0 0
4572 49 8 0.0 -1.1074623977854785 31.253737987142795 9.840287216441594 0 0 0
4613 49 8 0.0 -1.0575904866561618 32.96436468404586 7.214953455330984 0 0 0
4641 49 8 0.0 -1.1211470115173825 36.16986055400522 7.0587859443506105 0 -1 0
4687 49 8 0.0 -1.125029535265009 34.4752446381567 9.876284518791346 0 0 0
4776 49 8 0.0 1.514569119863646 34.52883235017303 6.12917086572456 0 0 0
4819 49 8 0.0 1.5583122178958133 36.134443038207145 8.994635908910423 0 -1 0
4832 49 8 0.0 1.4938852194767047 31.26347768481629 6.122598634977857 0 0 0