11280
Atoms. Timestep: 12200000
S 43.2963 28.4103 -1.42875
C 44.0927 28.9539 41.8421
C 45.5307 29.3819 42.2863
H 43.6185 29.8224 41.4183
H 44.2192 28.1895 41.0831
H 45.5717 30.2184 -1.74696
C 46.3977 29.9054 41.2027
H 46.0861 28.6009 -1.89261
H 46.1421 31.0048 41.0508
H 46.3069 29.3552 40.2421
C 47.893 29.7782 41.411
H 48.0561 30.3292 -2.38454
C 48.8384 30.3154 40.3307
H 47.9475 28.7903 41.6142
H 48.5984 31.3644 40.0535
H 48.6615 29.7743 39.4327
C 50.304 30.1906 40.6512
H 50.4898 30.8343 41.5671
C 51.1418 30.8267 39.5042
H 50.5861 29.1386 40.8206
H 50.9187 31.879 39.3258
H 50.9061 30.2848 38.5291
C 52.633 30.667 39.7676
H 52.8719 31.0447 40.7979
C 53.5659 31.2978 38.6734
H 52.8944 29.56 39.879
H 53.2573 32.3679 38.5909
H 53.4076 30.8898 37.6305
C 55.0533 31.0945 39.0445
H 55.1594 31.4912 40.0312
C 55.9659 31.6771 38.0088
H 55.1647 29.9742 39.1354
H 55.7946 32.7481 37.8367
H 55.692 31.3351 37.0705
C 57.4749 31.3671 38.1857
H 57.5998 30.4343 38.6224
C 58.0659 32.3843 39.2574
H 58.0617 31.435 37.2562
H 57.7888 32.2153 40.2891
H 57.6181 33.4183 39.0519
C 59.5923 32.477 39.2833
H 60.0214 33.1967 39.9882
C 60.3257 32.5263 37.9702
H 59.8078 31.5271 39.6776
H 60.1475 33.4311 37.4097
H 60.1221 31.7018 37.3178
C 61.8471 32.5335 38.0992
C 63.9134 33.3707 38.5151
C 64.0808 32.2025 37.7647
C 62.8046 31.6701 37.3419
C 62.5572 33.6208 38.7459
H 62.067 34.3416 39.3835
H 62.5092 30.871 36.6804
H 64.7481 33.9309 38.9321
H 65.0617 31.7298 37.5176
He 63.0416 32.646 38.2094
Fe 62.9793 33.5974 36.7489
C 62.5352 35.5336 36.2795
C 63.8778 35.3291 35.8916
C 63.9195 34.2198 34.8919
C 62.5668 33.6999 34.8131
C 65.1388 33.7226 34.3147
C 61.6936 34.5407 35.5753
C 66.3255 33.3611 33.6311
C 67.6061 33.0059 33.1105
C 68.0131 31.7978 32.5231
C 69.448 31.9117 32.2362
C 69.8644 33.2442 32.6814
C 68.7098 33.941 33.1995
H 62.243 36.2077 37.0253
H 64.7529 35.7991 36.2607
H 60.6228 34.3992 35.7069
H 70.8655 33.5397 32.7755
H 68.744 34.9673 33.5063
H 70.0996 31.1789 31.8476
H 67.4878 30.8918 32.2427
H 62.3757 32.7533 34.2991
He 62.9379 34.7114 35.3738
He 68.6702 32.9821 32.5031
Fe 69.0279 32.0839 34.2151
C 68.5826 32.6078 36.1511
C 69.9649 32.738 35.9846
C 68.3069 31.2082 35.8004
C 70.5629 31.559 35.6053
C 69.5715 30.5475 35.554
H 70.4432 33.6443 36.1111
H 71.6034 31.4954 35.3771
H 67.8202 33.3379 36.4304
H 69.6369 29.4683 35.1963
H 67.328 30.7387 35.7304
He 69.3772 31.6824 36.1767
S 43.5336 34.4058 -0.848595
C 44.8233 33.1401 -0.945949
C 46.0803 33.8614 -0.520344
H 44.9961 32.7736 -1.9464
H 44.5265 32.2902 -0.353428
H 46.1405 34.7061 -1.24015
C 47.3596 32.9964 -0.737691
H 45.9969 34.295 0.440577
H 47.4281 32.3893 -1.66533
H 47.5191 32.2784 0.0492878
C 48.6132 33.8719 -0.738777
H 48.5093 34.9519 -0.975054
C 49.8658 33.3121 -1.46492
H 48.9842 33.819 0.256506
H 49.6713 33.2341 42.2313
H 50.1127 32.3202 -1.12481
C 51.143 34.1818 -1.24174
H 50.9384 35.2136 -1.53741
C 52.5037 33.5984 -1.76015
H 51.307 34.231 -0.15755
H 52.5731 33.5486 41.927
H 52.5402 32.6115 -1.32378
C 53.7435 34.4586 -1.31711
H 53.5668 35.531 -1.51418
C 55.1237 33.9267 -1.83122
H 53.7386 34.3941 -0.193806
H 55.2408 33.8407 41.8364
H 55.1357 32.8669 -1.46604
C 56.4242 34.5587 -1.18986
H 56.1039 35.6119 -1.24438
C 57.8022 34.3136 -1.92305
H 56.5548 34.372 -0.127898
H 57.7377 34.6747 41.7891
H 57.8945 33.2525 -2.07264
C 58.9241 35.0187 -1.12157
H 58.5242 35.9332 -0.847847
C 60.2043 35.2631 -1.92645
H 59.0772 34.5265 -0.105617
H 59.9446 35.969 42.1442
H 60.4172 34.3414 42.2672
C 61.3546 35.8564 -1.07372
H 61.0126 -2.03901 -0.552549
C 62.6239 36.0905 -1.82644
H 61.4542 35.074 -0.306293
H 62.7484 35.2668 42.249
H 63.4281 36.0306 -1.02125
C 62.5843 -1.3043 42.2279
C 62.1535 0.294535 40.5946
C 62.9357 0.915956 41.6661
C 63.208 -0.0747342 -2.1416
C 61.977 -1.1107 40.9403
H 61.3466 -1.7846 40.412
H 63.8298 0.0458954 -1.19635
H 61.8688 0.709186 39.6287
H 63.3599 1.91728 41.6813
He 62.6333 -0.252711 41.6032
Fe 63.9997 -0.569144 40.7416
C 64.9268 -1.50607 39.2753
C 65.1762 -0.106598 39.1899
C 65.8975 0.332921 40.353
C 65.9264 -0.79113 41.2611
C 66.5116 1.60718 40.6328
C 65.3771 -1.9546 40.6186
C 67.1797 2.85065 40.8476
C 67.8727 4.16275 40.9169
C 67.3139 5.38737 41.3834
C 68.1665 6.4286 41.0156
C 69.2365 5.86812 40.2788
C 69.1224 4.42014 40.2661
H 64.5303 -2.05388 38.476
H 65.0146 0.582389 38.3949
H 65.2086 35.7913 41.0082
H 69.9339 6.55871 39.8424
H 69.7812 3.68622 39.7875
H 68.1052 7.51147 41.2368
H 66.352 5.49837 41.8753
H 66.3971 -0.926891 42.2219
He 65.7442 -0.950496 39.9485
He 68.2981 5.2521 40.7055
Fe 67.4361 5.48452 39.3909
C 67.6509 5.05906 37.5458
C 66.8688 6.28392 37.6824
C 66.916 3.98044 38.1342
C 65.7008 5.94351 38.4621
C 65.7298 4.52151 38.7278
H 67.2438 7.22759 37.3981
H 64.9102 6.59174 38.6929
H 68.5951 4.92637 36.9835
H 64.9743 3.95021 39.3134
H 67.0224 2.85318 38.1017
He 66.7588 5.16631 38.3115
S 43.1852 24.7354 10.0764
C 44.1132 26.2266 10.4833
C 45.5916 26.2143 9.88248
H 44.1875 26.2075 11.6093
H 43.5294 27.1201 10.2366
H 46.2076 27.078 10.1969
C 45.5752 26.3124 8.33157
H 46.1259 25.3441 10.1974
H 44.9344 27.1467 8.10105
H 45.2194 25.4974 7.78459
C 46.9538 26.621 7.76444
H 47.446 27.4465 8.24466
C 46.9573 26.8238 6.25461
H 47.5817 25.7696 7.89713
H 46.4042 27.7871 6.03606
H 46.5094 25.9123 5.87015
C 48.4488 26.9071 5.82431
H 48.9162 27.5541 6.57899
C 48.6654 27.3117 4.35874
H 48.9675 25.9548 5.94332
H 48.2012 28.2624 4.02617
H 48.1794 26.5844 3.73447
C 50.0473 27.2633 3.78998
H 50.4442 26.248 4.01882
C 50.9614 28.4541 4.20487
H 50.0257 27.2694 2.64825
H 50.9446 28.4167 5.31958
H 50.4503 29.3225 3.84137
C 52.46 28.3168 3.8235
H 52.942 27.4746 4.3726
C 53.2875 29.5922 3.84078
H 52.5089 27.9924 2.80732
H 53.5066 29.8665 4.8375
H 52.7453 30.4181 3.49814
C 54.6244 29.3873 3.10287
H 55.0748 28.485 3.4752
C 55.7444 30.4411 3.36673
H 54.3721 29.2304 2.10147
H 56.7508 29.9816 3.09919
H 55.8651 30.3772 4.46257
C 55.5369 31.8223 2.66972
H 55.5044 31.7211 1.63261
C 56.6137 32.8152 3.08264
H 54.5232 32.1861 2.864
H 56.3508 33.0908 4.12093
H 56.4432 33.739 2.42862
C 58.0347 32.3815 3.01112
C 60.0038 31.2527 3.34513
C 59.9897 31.7976 2.01796
C 58.7069 32.4797 1.77055
C 58.7666 31.677 3.99166
H 58.4986 31.366 4.99405
H 58.3079 33.0106 0.900043
H 60.7714 30.5481 3.73514
H 60.7487 31.6079 1.26951
He 59.2057 32.024 2.85469
Fe 59.9341 33.3384 3.35816
C 59.5122 34.6116 4.94893
C 60.6885 33.8077 5.11023
C 61.6161 34.1118 4.03079
C 60.9985 35.036 3.21405
C 62.9859 33.6503 3.84837
C 59.6701 35.2553 3.65454
C 64.3479 33.2733 3.64867
C 65.6906 32.7859 3.38843
C 66.7994 33.0771 4.24013
C 67.9578 32.38 3.79475
C 67.574 31.6489 2.66542
C 66.1472 31.8635 2.39741
H 58.5828 34.6139 5.52438
H 60.9167 33.0889 5.91455
H 59.0221 35.8863 3.05967
H 68.0855 30.9211 2.04006
H 65.4912 31.3061 1.64842
H 68.8833 32.3797 4.17554
H 66.829 33.7213 5.13535
H 61.4786 35.4098 2.35567
He 60.3467 34.3206 4.04626
He 66.7439 32.2598 3.39548
Fe 67.2248 33.6904 2.28495
C 67.5187 35.6295 1.9729
C 66.1544 35.4078 2.06765
C 68.0199 34.9111 0.835982
C 65.8521 34.4398 1.03662
C 66.9865 34.1073 0.271505
H 65.5125 35.7633 2.87522
H 64.8587 34.0187 0.865121
H 68.1076 36.1934 2.64487
H 66.9434 33.3681 -0.48982
H 69.0022 34.8608 0.382393
He 67.0113 34.7192 1.34815
S 43.0427 33.1604 21.8266
C 44.6322 32.7499 21.3657
C 44.8279 31.6205 20.3759
H 45.2422 32.5587 22.2936
H 45.0504 33.7082 20.9128
H 45.0159 30.6349 20.833
C 46.1526 31.7842 19.5825
H 43.91 31.5542 19.7508
H 46.9704 31.9112 20.2167
H 46.0747 32.6772 18.907
C 46.5838 30.6557 18.6473
H 46.9561 29.7505 19.1436
C 47.8155 31.0467 17.7461
H 45.8208 30.1785 18.0544
H 48.7466 30.9037 18.3031
H 47.9817 32.1102 17.5565
C 47.7716 30.2981 16.4218
H 47.7459 29.2111 16.6456
C 48.7051 30.8112 15.3547
H 46.8631 30.4315 15.9877
H 49.7159 31.014 15.7282
H 48.412 31.7874 14.8682
C 49.0332 29.7703 14.2389
H 49.8957 29.2346 14.4254
C 49.2386 30.4433 12.8507
H 48.2697 29.0071 14.1872
H 48.3718 31.0687 12.7321
H 49.1957 29.6384 12.1094
C 50.493 31.2378 12.714
H 50.2965 32.0281 13.4489
C 50.9565 31.6454 11.3027
H 51.26 30.7404 13.2688
H 50.7783 30.7969 10.5596
H 51.9958 31.8501 11.1425
C 50.3074 32.9375 10.8113
H 49.2803 32.7012 10.9888
C 50.5395 33.4249 9.31945
H 50.6564 33.7499 11.434
H 51.6002 33.3147 9.18198
H 50.314 34.5043 9.23952
C 49.7221 32.4975 8.31743
H 50.1868 31.5124 8.32595
C 49.7661 32.9679 6.91318
H 48.7177 32.5121 8.67208
H 49.1017 33.8689 6.8661
H 49.3517 32.2703 6.29866
C 51.1937 33.1613 6.41157
C 53.0376 34.2427 5.57459
C 53.2789 32.8566 5.58895
C 52.0897 32.1626 6.07786
C 51.729 34.425 6.13444
H 51.2642 35.3547 6.33413
H 51.9205 31.1148 6.13764
H 53.7729 34.9863 5.19829
H 54.1683 32.4121 5.18157
He 52.3669 33.3339 6.14225
Fe 51.733 33.2627 4.4531
C 49.8559 33.8926 3.67832
C 50.7623 35.0456 3.64161
C 51.9082 34.7546 2.87666
C 51.7249 33.3773 2.4483
C 53.0296 35.5918 2.62633
C 50.5086 32.8374 2.9222
C 54.1578 36.4653 2.31925
C 55.2489 -1.38513 2.14458
C 56.6254 -1.76259 2.01549
C 57.3817 -0.58685 1.75164
C 56.4605 0.551573 1.66509
C 55.1527 0.047972 2.00522
H 48.8639 33.8379 4.19056
H 50.4935 35.9919 4.06446
H 50.0374 31.8486 2.81537
H 56.7242 1.56258 1.33085
H 54.2586 0.614396 1.99251
H 58.4009 -0.63132 1.53053
H 57.151 36.0715 2.21221
H 52.3693 32.8214 1.84275
He 50.9505 33.9355 3.18208
He 56.1916 -0.562442 1.95852
Fe 56.6423 -0.246255 3.52743
C 57.439 -1.28519 5.13182
C 56.1015 -1.71579 4.84101
C 57.2888 0.133546 5.48226
C 55.1784 -0.623771 4.90576
C 55.8755 0.483065 5.47704
H 55.7545 36.032 4.70924
H 54.1114 -0.760324 4.83516
H 58.3646 -1.91304 5.08964
H 55.4889 1.41626 5.92676
H 58.1029 0.791415 5.69612
He 56.2744 -0.63809 5.37201
S 43.1049 2.47774 14.4862
C 44.5845 1.37837 14.5978
C 44.432 0.688599 16.0106
H 45.5232 1.95537 14.4942
H 44.6037 0.655484 13.8133
H 44.2546 1.43995 16.7793
C 45.7635 -0.103205 16.3675
H 43.5761 -0.0218375 16.0059
H 46.6818 0.420204 16.2528
H 45.9074 -0.878561 15.5719
C 45.6796 -0.553131 17.8464
H 45.4777 0.304594 18.4637
C 47.0025 -1.08699 18.2832
H 44.8921 -1.23202 17.835
H 47.9071 -0.56616 18.0141
H 47.0105 -2.05858 17.7504
C 47.0723 -1.28356 19.8435
H 47.0369 -0.323435 20.4011
C 48.2857 36.6796 20.282
H 46.2117 -1.87043 20.1458
H 49.1554 -1.56578 19.8185
H 48.2177 35.6289 19.8992
C 48.542 -1.95621 21.7638
H 49.5753 36.5895 21.9151
C 47.5649 35.9156 22.5922
H 48.4464 -0.909902 22.1447
H 48.2205 35.6182 23.3888
H 47.3986 34.9821 21.9867
C 46.3093 36.5648 23.0949
H 46.5943 -1.36759 23.7203
C 45.2925 35.6725 23.9277
H 45.7815 -1.75152 22.2331
H 44.7709 34.9826 23.3081
H 44.5102 36.2946 24.4234
C 45.9349 34.9645 25.111
H 46.7981 34.3088 24.752
C 45.0232 34.1133 26.015
H 46.3651 35.8394 25.6323
H 44.3718 33.4165 25.5246
H 44.2382 34.7712 26.5034
C 45.8273 33.5269 27.1422
H 46.1367 34.32 27.8238
C 46.912 32.4419 26.7856
H 45.2204 33.0218 27.7792
H 47.2447 31.9456 27.6632
H 47.8028 32.807 26.3494
C 46.4221 31.4239 25.7904
C 45.2331 29.7476 24.5768
C 46.3538 30.1458 23.7934
C 47.1252 31.149 24.5391
C 45.3166 30.5027 25.8071
H 44.7013 30.3359 26.6263
H 47.9894 31.545 24.186
H 44.4831 28.9685 24.3858
H 46.5982 29.7763 22.8699
He 46.0528 30.6693 24.8691
Fe 47.0896 29.4382 25.545
C 46.908 28.0918 26.9645
C 47.1644 27.484 25.6693
C 48.4145 27.9429 25.2685
C 48.9129 28.9514 26.144
C 49.208 27.612 24.1118
C 48.0018 29.0005 27.2428
C 50.08 27.2883 23.0049
C 51.0326 27.1405 21.9247
C 51.5494 25.9732 21.252
C 52.5488 26.3457 20.2961
C 52.616 27.7827 20.279
C 51.6845 28.2239 21.2701
H 46.069 27.9958 27.5685
H 46.529 26.8219 25.1261
H 48.0872 29.5331 28.1581
H 53.2631 28.4084 19.5843
H 51.5004 29.2617 21.586
H 53.0049 25.601 19.7402
H 51.1944 25.0312 21.4315
H 49.8433 29.4973 26.0261
He 47.662 28.4535 26.1545
He 51.7288 27.1468 20.8215
Fe 53.0574 27.0355 22.1665
C 54.9084 27.0333 23.0304
C 54.0315 26.0969 23.6803
C 54.3658 28.3192 23.0488
C 52.9305 26.8441 24.2333
C 53.1981 28.2246 23.8672
H 54.2881 25.0177 23.7008
H 52.0978 26.4567 24.7487
H 55.8425 26.8138 22.6232
H 52.6147 29.0894 24.1682
H 54.8272 29.195 22.6415
He 53.8301 27.2417 23.4432
S 43.3317 34.9172 30.3508
C 44.5514 36.1912 29.9445
C 45.8498 36.1011 30.8002
H 44.0735 -1.59259 29.8975
H 44.8183 35.9625 28.9235
H 45.5164 36.1242 31.9084
C 46.7301 -1.53037 30.4121
H 46.2701 35.1524 30.5875
H 47.6876 -1.54697 31.0221
H 46.2302 -0.608702 30.6936
C 47.0971 -1.31202 28.8715
H 47.1591 36.53 28.3115
C 48.4297 -0.512226 28.7043
H 46.145 -0.745659 28.6437
H 49.3357 -1.12102 28.956
H 48.4835 0.335518 29.3612
C 48.6935 -0.0962675 27.252
H 48.6934 -1.01523 26.7264
C 49.999 0.682419 27.0494
H 47.8838 0.474684 26.8011
H 50.7482 0.448291 27.8257
H 49.778 1.72311 27.2112
C 50.6719 0.308072 25.7105
H 51.2157 -0.664482 25.6771
C 51.696 1.38633 25.1647
H 49.9018 0.355626 24.9054
H 52.6326 1.16031 25.7639
H 51.377 2.40696 25.3509
C 51.9833 1.35448 23.6166
H 51.0471 1.04295 23.1415
C 53.0616 0.370631 23.0703
H 52.2819 2.252 23.2176
H 52.7199 -0.642694 23.3994
H 54.1373 0.566906 23.4628
C 53.163 0.419892 21.5527
H 52.1312 0.127111 21.1135
C 54.2616 -0.457153 20.9904
H 53.4339 1.49332 21.2062
H 54.2441 -1.40226 21.4787
H 55.2287 0.00908307 21.306
C 54.2977 -0.425857 19.4884
H 53.3449 -0.740933 19.1116
C 55.2551 -1.45586 18.8789
H 54.5709 0.498327 19.0428
H 55.2087 -1.35403 17.8355
H 55.0465 36.2371 19.1517
C 56.7355 -1.1216 19.1792
C 58.9241 -0.463118 18.8785
C 58.7668 -0.784621 20.2494
C 57.4397 -1.18995 20.4506
C 57.6723 -0.643291 18.1912
H 57.2881 -0.368557 17.1817
H 57.0013 -1.43792 21.3724
H 59.7637 -0.0101467 18.435
H 59.4883 -0.610327 21.0521
He 57.9669 -1.03937 19.2979
Fe 58.3237 36.3284 18.9775
C 57.3313 34.9394 17.8885
C 58.6707 35.2218 17.4201
C 59.6282 34.9546 18.466
C 58.9273 34.6096 19.6756
C 61.0334 35.0564 18.1843
C 57.4665 34.6209 19.2976
C 62.4922 35.1103 17.9825
C 63.8962 35.0441 17.851
C 64.5736 34.0833 17.0037
C 65.9503 34.3172 16.9297
C 66.1508 35.5343 17.635
C 64.903 35.993 18.261
H 56.4535 35.1252 17.2724
H 58.9981 35.6697 16.4882
H 56.7045 34.5067 19.9888
H 67.1339 35.9811 17.7335
H 64.6296 -1.89044 18.7775
H 66.7508 33.7067 16.4199
H 64.1547 33.1532 16.6115
H 59.3084 34.4712 20.6714
He 58.3953 34.5849 18.5436
He 65.0868 34.9226 17.6768
Fe 65.3187 34.111 18.8839
C 66.4301 32.6688 19.5514
C 65.3117 32.6159 20.3967
C 67.1517 33.9 19.7422
C 65.1798 33.931 20.9294
C 66.332 34.7164 20.5387
H 64.6785 31.7521 20.3687
H 64.4072 34.417 21.4372
H 66.6501 31.6825 19.0633
H 66.5933 35.6636 20.9366
H 68.1783 34.116 19.413
He 66.0814 33.5444 20.2687
S 43.0948 24.9013 32.2023
C 44.1377 26.0578 31.2095
C 44.8175 27.0627 32.2276
H 43.4853 26.4751 30.5348
H 44.9472 25.5818 30.7112
H 44.0793 27.4612 32.9377
C 45.6022 28.2705 31.6511
H 45.4259 26.5359 32.9683
H 46.1835 27.8829 30.8335
H 46.3394 28.4818 32.4177
C 44.6354 29.5039 31.5528
H 43.8659 29.2226 30.8907
C 45.2136 30.8204 31.0731
H 44.183 29.6781 32.5445
H 44.6268 31.6615 31.4784
H 45.0037 30.9299 29.9969
C 46.7314 31.0683 31.3479
H 46.9564 31.0292 32.4389
C 47.1253 32.4808 30.9022
H 47.3639 30.2932 30.9685
H 46.5543 33.2632 31.4405
H 46.9211 32.6522 29.8391
C 48.7145 32.6394 31.1936
H 48.9234 32.0767 32.1031
C 49.2922 34.0765 31.352
H 49.3088 32.0414 30.4122
H 50.1939 33.952 31.8596
H 48.6679 34.5765 32.0644
C 49.5363 34.8938 30.1476
H 48.6289 35.158 29.6357
C 50.5599 34.2075 29.2261
H 49.9756 35.7411 30.5447
H 49.9832 33.4192 28.7201
H 51.404 33.7672 29.843
C 51.0568 35.2415 28.1556
H 50.181 35.8602 27.8447
C 51.8576 34.5491 27.033
H 51.7257 35.9311 28.6159
H 51.5179 33.5703 26.7974
H 52.8488 34.3954 27.4436
C 51.9375 35.3462 25.7417
H 50.9323 35.6477 25.5514
C 52.4677 34.5794 24.5007
H 52.5305 36.293 25.9239
H 53.4368 34.1376 24.7333
H 52.5568 35.364 23.6871
C 51.6316 33.438 24.0753
C 50.7851 31.3284 23.597
C 50.0226 32.3271 22.8717
C 50.5371 33.5982 23.1662
C 51.8315 32.0035 24.3207
H 52.6574 31.4827 24.7087
H 50.1213 34.5454 22.8711
H 50.5552 30.324 23.5794
H 49.1088 32.1127 22.2657
He 50.9449 32.5416 23.5803
Fe 51.9838 32.3379 22.2728
C 51.3957 33.3818 20.4664
C 52.5349 33.9771 21.1533
C 53.5766 33.0291 21.2237
C 53.1781 31.7747 20.597
C 54.8329 33.3983 21.7356
C 51.8299 31.9933 20.1358
C 56.0867 33.6168 22.3357
C 57.3086 33.9089 22.9698
C 58.4953 33.1747 23.0716
C 59.4991 34.0456 23.6249
C 58.9414 35.2851 23.8817
C 57.5525 35.2253 23.4862
H 50.3779 33.9039 20.3509
H 52.6701 35.0388 21.4517
H 51.275 31.1736 19.6861
H 59.3969 36.2219 24.1645
H 56.8414 36.0091 23.7197
H 60.5336 33.8341 23.7064
H 58.6027 32.1102 22.7852
H 53.7211 30.8408 20.4935
He 52.6175 32.8394 20.5463
He 58.3842 34.2551 23.5272
Fe 57.8782 33.7007 24.9234
C 57.3956 35.1216 26.3619
C 58.1276 34.0205 27.0137
C 56.2645 34.568 25.7588
C 57.437 32.8182 26.7047
C 56.2333 33.151 25.993
H 59.1054 34.1204 27.5683
H 57.7776 31.8257 27.0027
H 57.6679 36.1475 26.3534
H 55.5085 32.511 25.6774
H 55.4639 35.0471 25.2965
He 57.1954 33.8655 26.2088
S 43.0562 23.3937 40.5683
C 44.384 24.6393 40.2259
C 45.132 24.3993 38.8503
H 45.0965 24.6251 41.0862
H 43.9254 25.6574 40.1592
H 45.5721 23.3827 38.9355
C 46.2483 25.4473 38.5686
H 44.3858 24.4695 38.0634
H 47.0339 25.1406 37.9098
H 46.8404 25.5283 39.4907
C 45.6777 26.6732 37.9055
H 45.0854 26.3744 37.0648
C 46.6714 27.5493 37.3644
H 45.0237 27.2382 38.5502
H 47.2113 27.0127 36.6393
H 47.2788 28.0637 38.1554
C 46.1109 28.7406 36.5286
H 45.8444 28.4471 35.5041
C 47.0786 29.9238 36.4684
H 45.1955 29.0999 36.983
H 47.2114 30.5705 37.3503
H 46.7607 30.6179 35.705
C 48.4821 29.5686 36.0736
H 49.0656 29.2676 36.9796
C 49.1094 30.6632 35.2251
H 48.4941 28.6215 35.6068
H 48.8445 31.6061 35.7369
H 48.6255 30.6431 34.2568
C 50.6192 30.6058 35.2027
H 50.9634 30.7961 36.2217
C 51.1985 31.7735 34.3084
H 50.8985 29.5908 34.8528
H 50.687 32.7016 34.6961
H 50.9575 31.6448 33.237
C 52.7728 31.9423 34.4291
H 53.0696 31.8828 35.4791
C 53.065 33.3308 33.8033
H 53.2666 31.1434 33.9018
H 52.4427 34.0352 34.2808
H 52.8241 33.4655 32.7576
C 54.5171 33.7179 34.0783
H 54.703 33.7149 35.167
C 54.871 35.1113 33.6421
H 55.3087 33.0412 33.6064
H 55.6838 35.6748 34.0616
H 54.0105 35.7448 33.9293
C 55.0609 35.3277 32.1546
C 55.9065 34.8658 30.049
C 54.8315 35.7947 29.8926
C 54.3459 36.1352 31.2146
C 56.0163 34.5756 31.3971
H 56.6858 33.8749 31.7971
H 53.5669 -1.97416 31.4137
H 56.4928 34.5231 29.2422
H 54.3077 36.028 28.9819
He 55.4382 35.609 30.9902
Fe 56.474 36.5435 31.0674
C 56.8059 -0.782965 32.674
C 57.898 -1.66875 32.6065
C 58.4347 -1.68318 31.2772
C 57.8296 -0.603429 30.6235
C 59.5753 36.3957 30.8382
C 56.7352 -0.173496 31.3661
C 60.798 35.8567 30.2644
C 61.9866 35.358 29.6549
C 63.2968 35.9186 29.9649
C 64.1605 35.1401 29.2183
C 63.4452 34.0772 28.5582
C 62.0647 34.1912 28.8216
H 56.1869 -0.591169 33.5622
H 58.2787 36.5433 33.3577
H 56.0427 0.610686 31.0649
H 63.9393 33.2935 27.9225
H 61.2038 33.5615 28.6079
H 65.2174 35.3016 29.1304
H 63.4272 -1.97264 30.6229
H 57.9986 -0.254864 29.6271
He 57.3235 -1.25725 31.6196
He 63.0225 34.9949 29.2583
Fe 62.8009 35.9302 27.8654
C 64.646 36.5272 26.9484
C 63.6585 -1.23304 27.3602
C 63.988 35.6846 26.043
C 62.4876 -1.40683 26.5715
C 62.6926 36.1951 25.7119
H 63.9121 -0.378629 27.9661
H 61.6662 -0.835067 26.5013
H 65.6302 36.4321 27.2738
H 61.9919 35.7179 25.0363
H 64.3141 34.8403 25.4822
He 63.5822 -1.94197 26.3963
S 43.0786 22.3225 7.60214
C 44.8891 22.3728 7.25851
C 45.1469 22.7691 5.79864
H 45.3054 21.4127 7.44137
H 45.2683 23.1051 7.94754
H 44.668 22.0384 5.09381
C 46.6134 22.9587 5.47729
H 44.5613 23.6499 5.46663
H 47.0407 21.9774 5.69564
H 47.0556 23.7403 6.04752
C 46.8211 23.2952 3.99096
H 46.6266 22.4284 3.45146
C 48.3035 23.4 3.56377
H 46.0978 23.9896 3.64792
H 48.809 22.5166 3.90568
H 48.7238 24.2167 4.195
C 48.4782 23.5255 2.11113
H 48.1148 22.674 1.55407
C 49.9745 23.7279 1.78186
H 47.8696 24.4312 1.79559
H 50.5568 22.8279 2.01854
H 50.3708 24.5102 2.38377
C 50.2139 24.1297 0.332381
H 49.6681 23.3866 -0.250933
C 51.6733 24.383 -0.0958047
H 49.5805 25.0084 0.0787381
H 52.1413 23.4063 -0.0302968
H 52.0601 25.1578 0.614559
C 51.91 25.022 -1.4218
H 51.4157 24.2916 -1.98578
C 53.4516 25.1254 -1.79383
H 51.3225 26.0093 -1.44483
H 53.9311 24.1474 -1.66166
H 54.0411 25.8426 -1.17246
C 53.5397 25.4439 41.4594
H 52.9825 24.7117 40.9021
C 55.004 25.4442 40.887
H 52.9209 26.3404 41.2494
H 55.4652 24.4037 40.944
H 55.6284 26.0648 41.5412
C 55.0132 25.8781 39.4126
H 54.1491 25.4517 38.9324
C 56.2929 25.4589 38.6654
H 54.9313 26.9808 39.4295
H 56.1315 25.7161 37.604
H 56.4764 24.4046 38.6994
C 57.5367 26.2681 38.9835
C 59.0436 27.9858 39.1588
C 59.684 26.8188 39.7218
C 58.721 25.7192 39.5637
C 57.7687 27.624 38.6511
H 57.0459 28.265 38.1902
H 58.7301 24.6907 39.8285
H 59.5354 28.9017 38.9149
H 60.6425 26.7615 40.1681
He 58.5016 26.8535 39.3648
Fe 59.1786 26.4933 37.6447
C 58.2029 27.3777 36.012
C 59.5456 27.9634 36.2443
C 60.4865 26.9152 36.058
C 59.7855 25.7079 35.8361
C 61.8632 27.0612 36.1448
C 58.3771 25.981 35.7391
C 63.2384 27.2763 36.4015
C 64.6497 27.3355 36.6173
C 65.51 26.2184 36.7274
C 66.8444 26.6883 37.0168
C 66.8019 28.1193 36.9855
C 65.4569 28.52 36.7304
H 57.264 27.8897 36.045
H 59.6328 29.0113 36.3973
H 57.6762 25.2516 35.5064
H 67.6393 28.7817 37.1949
H 65.0509 29.5086 36.5475
H 67.6717 26.0718 37.2526
H 65.3102 25.142 36.559
H 60.1751 24.6953 35.5936
He 59.3323 26.8159 35.8051
He 65.8242 27.3363 37.0106
Fe 65.4999 27.4023 38.4318
C 65.3378 27.0728 40.4973
C 64.0804 27.2318 39.8235
C 66.142 28.2045 40.1951
C 64.0092 28.5531 39.2868
C 65.294 29.1897 39.5527
H 63.2847 26.5335 39.6561
H 63.1545 28.9707 38.7388
H 65.6015 26.2568 41.0942
H 65.6484 30.1571 39.3646
H 67.2031 28.5168 40.5552
He 64.9447 28.0767 39.98
S 43.2052 28.1562 4.18659
C 44.54 27.4852 3.04788
C 45.2142 28.6523 2.32472
H 44.1565 26.7586 2.22756
H 45.2001 26.866 3.66965
H 44.4802 29.2427 1.77631
C 46.2432 28.1761 1.32281
H 45.7339 29.3318 3.05513
H 45.7677 27.7022 0.427123
H 46.8315 27.3393 1.69643
C 47.3792 29.1921 1.14713
H 47.0655 29.9953 0.491321
C 48.5643 28.6894 0.395543
H 47.8222 29.5612 2.04549
H 48.207 28.3606 -0.575279
H 48.8974 27.6833 0.724612
C 49.6729 29.7678 0.333852
H 49.3488 30.5835 -0.272602
C 50.9175 29.1741 -0.369933
H 49.9367 30.2664 1.25411
H 50.724 28.8325 -1.4279
H 51.2311 28.2975 0.275992
C 52.0499 30.0894 -0.542419
H 51.7717 30.6845 -1.32795
C 53.3329 29.2902 -0.826969
H 52.1369 30.8594 0.260696
H 53.0631 28.7111 -1.6865
H 53.5898 28.6959 -0.000151057
C 54.4459 30.173 -1.20881
H 54.1743 30.7131 -2.07425
C 55.6904 29.4162 -1.61847
H 54.6624 30.7735 -0.407531
H 55.5047 28.7575 42.2446
H 55.9384 28.7601 -0.751563
C 56.8377 30.3864 -2.01979
H 56.5211 31.1927 42.0859
C 58.0599 29.7736 42.0281
H 57.12 30.8361 -1.09589
H 58.6242 30.5699 41.5098
H 57.8688 29.0339 41.2308
C 58.9173 28.8673 -1.85821
H 58.2943 28.2471 -1.20336
C 59.9477 29.7617 -1.13866
H 59.409 28.1524 42.2837
H 60.4732 29.0281 -0.523221
H 59.6506 30.4706 -0.388316
C 61.0153 30.4668 -1.99322
C 62.4194 31.0342 41.0574
C 62.5805 32.0087 42.0838
C 61.6995 31.6744 -1.61653
C 61.5211 30.046 41.5234
H 61.2771 29.1338 41.0043
H 61.5468 32.2505 -0.760117
H 62.8948 30.9342 40.1588
H 63.2437 32.9188 41.9769
He 62.1619 30.7735 42.2564
Fe 62.9254 30.1119 -1.94085
C 63.845 28.8015 -0.662573
C 64.7763 29.4072 -1.54734
C 64.8069 30.8525 -1.30793
C 63.8732 31.1328 -0.248274
C 65.6761 31.7967 -1.92426
C 63.2438 29.9137 0.106059
C 66.554 32.6975 42.0673
C 67.4041 33.5739 41.2359
C 67.8887 33.2743 39.9113
C 68.6504 34.4485 39.4487
C 68.6876 35.3956 40.492
C 67.9022 34.8521 41.5715
H 63.6197 27.7816 -0.556398
H 65.3824 28.7555 -2.16244
H 62.3625 29.9249 0.722702
H 69.3224 36.3187 40.5101
H 67.7089 35.4111 -2.25975
H 69.0865 34.5602 38.4517
H 67.8256 32.4133 39.2537
H 63.6371 32.0868 0.138801
He 64.0957 29.9501 -0.767225
He 67.9625 34.3256 40.436
Fe 69.5057 33.5126 41.1268
C 71.1221 33.9718 42.1967
C 71.5698 33.5019 40.9465
C 70.4354 32.9076 -1.8783
C 71.0176 32.1738 40.7982
C 70.2327 31.7846 41.9509
H 71.9882 34.1223 40.1862
H 71.1433 31.5952 39.9451
H 71.2297 34.9857 -2.24358
H 69.6572 30.8868 42.1272
H 70.0389 32.9622 -0.876129
He 71.0003 32.8248 41.7607
S 43.3645 19.8155 12.3371
C 44.5792 21.1224 12.1442
C 45.7192 20.7971 11.1516
H 45.0389 21.3663 13.1084
H 44.03 21.9909 11.8677
H 46.4152 20.0509 11.5508
C 46.567 21.9384 10.6327
H 45.4273 20.3402 10.2118
H 46.8479 22.4543 11.5221
H 45.9117 22.6484 10.1019
C 47.739 21.5657 9.68901
H 48.5025 20.9994 10.2144
C 48.594 22.7436 9.22611
H 47.4017 20.9015 8.93276
H 49.0284 23.1635 10.0737
H 47.9073 23.4994 8.84751
C 49.5646 22.3493 8.08208
H 50.1677 21.4619 8.51408
C 50.4397 23.5316 7.64463
H 48.9082 21.8858 7.33976
H 51.0163 23.971 8.49197
H 49.8264 24.2398 7.18828
C 51.4799 22.9511 6.60636
H 52.3543 22.5213 7.04835
C 51.8899 24.0772 5.65346
H 50.9873 22.1617 6.01595
H 52.3309 24.9653 6.08022
H 51.0333 24.361 5.14033
C 52.7676 23.6112 4.47752
H 53.5761 23.1059 5.02349
C 53.3406 24.6554 3.56128
H 52.363 22.8344 3.81895
H 53.8334 25.3568 4.21985
H 52.5725 25.143 3.00567
C 54.3898 24.0799 2.54469
H 55.1659 23.5548 3.11215
C 55.0891 25.2609 1.73835
H 53.8627 23.3544 1.9575
H 55.5024 26.0439 2.42897
H 54.3658 25.7617 1.21246
C 56.169 24.8428 0.727363
H 55.955 23.8634 0.271992
C 57.5746 24.6709 1.35407
H 56.3202 25.5208 -0.0917226
H 58.2647 24.2792 0.58325
H 57.5629 23.9656 2.15817
C 58.2333 25.9548 1.86693
C 59.8158 27.3903 2.73496
C 58.73 28.1982 2.1065
C 57.7813 27.2833 1.55764
C 59.5254 26.0384 2.50288
H 60.1692 25.2535 2.84491
H 56.8885 27.6221 1.10143
H 60.7137 27.657 3.26656
H 58.6462 29.2729 2.07022
He 58.6963 27.0098 2.30339
Fe 57.9889 26.865 3.6413
C 57.1032 25.6485 5.1229
C 58.4595 25.886 5.41186
C 58.6599 27.348 5.52131
C 57.3617 27.9424 5.33133
C 59.8201 28.0681 5.82197
C 56.4337 26.8773 5.13455
C 61.0288 28.8183 6.08822
C 62.223 29.4474 6.5513
C 62.8102 30.7162 6.12133
C 64.1029 30.8796 6.72185
C 64.2536 29.7137 7.59237
C 63.1516 28.7672 7.38907
H 56.572 24.7311 4.97828
H 59.1846 25.0887 5.46384
H 55.3363 27.0791 5.06771
H 65.1776 29.6152 8.18138
H 63.0333 27.7232 7.74847
H 64.821 31.6921 6.47236
H 62.3945 31.392 5.38899
H 57.0981 28.9793 5.41584
He 57.696 26.7925 5.1057
He 63.4118 29.8814 6.73499
Fe 64.0278 29.0408 5.62942
C 64.9044 28.9648 3.93375
C 64.4172 27.6195 4.15985
C 65.8643 29.3726 4.88392
C 65.0211 27.19 5.39251
C 65.8757 28.3095 5.84233
H 63.7508 26.9879 3.58849
H 64.9986 26.1582 5.74815
H 64.6266 29.6088 3.0511
H 66.4708 28.3747 6.74497
H 66.4848 30.3066 4.82498
He 65.2741 28.2405 4.86506
S 43.0313 27.8648 21.0429
C 44.2737 28.0667 19.7222
C 44.2219 27.0056 18.6805
H 45.2424 28.2754 20.1134
H 44.0449 28.9945 19.232
H 44.5615 26.0249 19.0756
C 45.1302 27.252 17.4429
H 43.147 26.8795 18.3083
H 46.2688 27.4809 17.5952
H 44.7124 28.0674 16.901
C 45.1639 25.9825 16.5658
H 45.4379 25.1416 17.2683
C 46.0876 26.1344 15.3088
H 44.1558 25.7221 16.2725
H 47.0264 26.6849 15.5518
H 45.4886 26.8204 14.7553
C 46.2286 24.8392 14.3794
H 45.8984 23.9559 14.9328
C 47.6761 24.7659 13.7204
H 45.4512 24.9013 13.61
H 47.8868 23.7244 13.4436
H 48.4203 25.0492 14.4643
C 47.9069 25.6823 12.4665
H 47.2765 25.3297 11.6408
C 49.4069 25.707 12.0198
H 47.5124 26.6906 12.575
H 49.8311 24.7503 11.8907
H 50.0543 26.2419 12.7054
C 49.6698 26.2677 10.6331
H 49.1507 25.7637 9.83629
C 51.1476 26.4471 10.387
H 49.2187 27.224 10.6514
H 51.6092 25.5686 10.2059
H 51.6508 26.8553 11.2825
C 51.281 27.3912 9.12685
H 50.9734 27.0315 8.1349
C 52.7197 27.8542 9.1244
H 50.702 28.2554 9.24058
H 53.3783 27.0174 9.28598
H 52.7867 28.5148 9.98889
C 52.9475 28.7112 7.74541
H 52.6678 28.1605 6.90234
C 54.3688 29.2874 7.69958
H 52.277 29.5728 7.6874
H 54.2934 29.9844 6.80962
H 55.0841 28.6072 7.36705
C 54.8379 30.0112 8.89196
C 54.6992 31.0611 10.9283
C 55.9826 30.4258 10.8421
C 56.0657 29.8047 9.59073
C 54.057 30.9609 9.62138
H 53.0582 31.2525 9.33945
H 56.8783 29.1566 9.26116
H 54.2562 31.5617 11.7736
H 56.6982 30.4207 11.6386
He 55.1848 30.6487 9.83591
Fe 55.7493 31.8094 9.31093
C 55.3699 33.4873 8.28676
C 56.0796 33.8625 9.44115
C 57.2993 33.0848 9.41043
C 57.3805 32.2705 8.2276
C 58.3354 33.2208 10.4157
C 56.1669 32.5831 7.4858
C 59.2761 33.3791 11.4448
C 60.1961 33.5203 12.5067
C 61.5997 33.1355 12.4206
C 62.2047 33.5373 13.6871
C 61.161 34.1077 14.5373
C 59.9923 34.175 13.7287
H 54.4321 33.9385 7.9465
H 55.7096 34.6444 10.1622
H 55.9659 32.2038 6.50711
H 61.2706 34.4842 15.5079
H 59.0759 34.7039 14.0621
H 63.231 33.4168 13.9974
H 62.1538 32.8153 11.5016
H 58.1383 31.6036 8.04007
He 56.4916 33.1372 8.46058
He 61.01 33.5578 13.4151
Fe 60.6929 32.2085 13.9512
C 61.1329 31.0746 15.6337
C 60.7035 30.1202 14.636
C 60.0353 31.9354 15.8993
C 59.3986 30.5885 14.1679
C 59.0082 31.6543 14.9859
H 61.23 29.2908 14.1975
H 58.8373 30.2459 13.3761
H 62.1095 31.0074 16.1061
H 58.0846 32.1754 14.9554
H 59.9752 32.766 16.6181
He 60.1274 31.2229 14.839
S 43.0295 19.7941 28.4135
C 44.3344 18.6192 27.9159
C 45.6234 19.2613 27.4015
H 43.9746 17.887 27.0855
H 44.4059 17.9956 28.8118
H 45.9777 19.7742 28.2918
C 45.382 20.2417 26.2279
H 46.3062 18.4983 27.0995
H 44.6739 20.976 26.596
H 44.8026 19.6867 25.4551
C 46.4568 20.9303 25.5481
H 47.2035 21.1893 26.3134
C 46.1544 22.096 24.7137
H 46.9574 20.1637 24.9875
H 45.6811 22.9187 25.2254
H 45.5248 21.8366 23.838
C 47.5012 22.7618 24.3126
H 48.0123 22.9696 25.2508
C 47.2651 24.0676 23.5124
H 48.0293 22.03 23.6704
H 48.0141 24.7965 23.7494
H 46.4023 24.6069 23.6904
C 47.227 23.9316 21.9735
H 48.0736 23.267 21.7895
C 47.3718 25.3675 21.2581
H 46.3965 23.3843 21.6874
H 48.2417 25.812 21.7227
H 46.6191 26.1235 21.4992
C 47.5285 25.3712 19.6697
H 46.6289 24.7912 19.3054
C 48.8158 24.6798 19.1021
H 47.5076 26.4452 19.38
H 48.8553 23.6091 19.1652
H 49.5475 25.1715 19.7261
C 49.2196 25.2341 17.702
H 48.4672 25.0288 16.9055
C 50.5701 24.6646 17.2461
H 49.4123 26.3346 17.7308
H 50.5879 23.5355 17.1192
H 51.3434 24.777 18.0389
C 51.0215 25.3942 15.941
H 50.3921 25.1636 15.1263
C 52.4305 25.1781 15.5134
H 50.7906 26.4455 16.105
H 52.5812 25.6994 14.5916
H 52.7396 24.1211 15.3537
C 53.4114 25.9667 16.3547
C 54.655 27.6759 17.2568
C 55.4384 26.4822 17.4025
C 54.6211 25.4126 16.9338
C 53.4482 27.3738 16.5338
H 52.7229 28.1478 16.2358
H 54.9455 24.348 16.9846
H 55.0304 28.6184 17.5927
H 56.4368 26.4824 17.7999
He 54.2159 26.6034 17.0403
Fe 55.1809 26.8083 15.4969
C 55.7772 26.376 13.5624