11280
Atoms. Timestep: 11800000
S 42.8972 36.4155 4.98512
C 44.3322 36.3715 3.92921
C 44.2741 35.1673 3.01452
H 45.1817 36.4499 4.63891
H 44.4361 -1.42166 3.33601
H 43.9319 34.3489 3.57444
C 45.6131 34.774 2.33294
H 43.4773 35.3083 2.28384
H 45.7007 33.6884 2.40133
H 46.4766 35.0856 2.8852
C 45.8646 35.4753 0.934352
H 44.9753 35.282 0.289415
C 47.103 34.8881 0.226196
H 45.9284 36.616 1.01339
H 46.9476 33.8871 -0.0309871
H 47.8886 34.7886 0.976314
C 47.6344 35.6448 -1.00611
H 46.839 35.5634 -1.68197
C 48.9784 35.2183 -1.5778
H 47.7342 -2.01123 -0.726459
H 48.8487 34.1683 -2.04788
H 49.6655 35.0705 -0.823111
C 49.7169 36.219 42.2203
H 49.0251 36.4078 41.4055
C 51.0613 35.6616 41.7089
H 50.0371 -1.65176 -1.9729
H 50.9051 34.5521 41.5558
H 51.7118 35.8484 -2.2262
C 51.5732 36.3962 40.4696
H 50.9303 36.1818 39.6154
C 53.0539 36.0058 40.1515
H 51.6319 -1.28775 40.6492
H 53.0704 34.9012 40.2259
H 53.6717 36.4484 40.938
C 53.3798 36.5334 38.7312
H 52.5859 36.2938 38.0601
C 54.7714 36.118 38.2462
H 53.2405 -1.11073 38.7003
H 54.7139 35.0393 38.1161
H 55.3776 36.3413 39.1792
C 55.2976 -1.78975 37.0264
H 54.5794 -1.554 36.2903
C 56.5525 36.2757 36.4942
H 55.5197 -0.71089 37.2981
H 57.2345 36.0091 37.2114
H 57.1017 -1.80288 35.9101
C 56.433 34.9808 35.6041
C 55.4465 33.2387 34.445
C 56.8674 33.1966 34.2065
C 57.481 34.2898 34.9117
C 55.1926 34.3913 35.2722
H 54.2579 34.6682 35.7748
H 58.5522 34.5084 34.793
H 54.6661 32.5285 34.0672
H 57.4308 32.535 33.6129
He 56.2899 34.0297 34.9171
Fe 56.6322 33.1006 36.1424
C 56.23 31.0225 36.3739
C 57.5812 31.2218 35.999
C 58.1855 32.0302 36.9966
C 57.2195 32.4019 37.9436
C 59.577 32.462 37.0422
C 55.9854 31.7878 37.5654
C 60.951 32.8266 36.9955
C 62.3577 33.251 36.9502
C 63.1299 33.7854 38.0583
C 64.4462 34.0142 37.5458
C 64.518 33.5449 36.1507
C 63.2166 33.0442 35.8323
H 55.5672 30.2904 35.9064
H 58.0302 30.8311 35.1165
H 55.2325 31.8015 38.2725
H 65.3446 33.5419 35.4272
H 62.7237 32.5573 34.9413
H 65.331 34.3944 37.9824
H 62.7772 34.0228 39.0621
H 57.3286 33.0767 38.7462
He 56.9798 31.665 37.0151
He 63.5885 33.5965 36.9133
Fe 63.0193 35.0121 36.3809
C 63.319 -1.76105 35.7193
C 62.1246 -1.88402 36.5182
C 63.1301 36.1557 34.5933
C 61.2607 35.7765 35.9351
C 61.8851 35.4685 34.6501
H 62.0892 -1.42614 37.4463
H 60.3173 35.4533 36.3622
H 64.2106 -1.07484 35.8798
H 61.5847 34.7622 33.935
H 63.8745 35.9349 33.8621
He 62.36 36.0857 35.6008
S 43.1607 31.0011 3.94876
C 44.2369 30.1318 5.05421
C 45.6392 30.8169 4.96077
H 44.2183 29.0613 4.81479
H 43.8365 30.1695 6.08807
H 45.4735 31.8911 4.96645
C 46.4622 30.5664 3.72311
H 46.2857 30.5161 5.79195
H 45.8714 30.6923 2.82133
H 46.7786 29.5139 3.58863
C 47.7866 31.4411 3.6429
H 47.4538 32.5145 3.76017
C 48.5059 31.3232 2.29899
H 48.5053 31.1099 4.38528
H 47.8685 31.66 1.405
H 48.6058 30.2383 2.09435
C 49.8812 31.8954 2.11256
H 49.7855 32.9756 2.23179
C 50.5221 31.7273 0.727506
H 50.5487 31.5225 2.84949
H 49.7833 32.0504 -0.0247306
H 50.6366 30.5813 0.645385
C 51.7795 32.6005 0.645603
H 51.4257 33.6048 0.66729
C 52.6068 32.297 -0.633197
H 52.4808 32.3759 1.51345
H 51.9896 32.5879 -1.43078
H 52.8808 31.2851 -0.75578
C 53.8296 33.2464 -0.660722
H 53.4805 34.2975 -0.575147
C 54.6302 33.1903 -1.99103
H 54.4889 33.0899 0.232851
H 53.8565 33.3285 41.957
H 55.0247 32.2201 -2.19923
C 55.6969 34.2282 -2.1471
H 55.1964 35.188 -2.18494
C 56.3717 34.1379 41.2337
H 56.3195 34.3172 -1.25826
H 55.6131 34.2371 40.423
H 56.7764 33.1123 41.296
C 57.5068 35.117 40.9269
H 57.8972 34.8873 39.9562
C 58.6184 35.1368 41.9532
H 57.0464 36.122 40.9542
H 58.9877 34.0513 42.0857
H 58.2879 35.36 -1.77016
C 59.8935 35.8297 41.553
C 61.7536 36.4228 40.2935
C 61.778 -1.528 41.5097
C 60.6251 -1.94392 42.2726
C 60.6591 35.4958 40.3462
H 60.3376 34.7881 39.5843
H 60.3493 -1.55498 -1.5177
H 62.458 36.5936 39.5244
H 62.5073 -0.724478 41.7291
He 60.9182 36.3671 41.1852
Fe 61.8404 35.1562 41.9899
C 62.2612 33.4785 -1.63746
C 63.2538 33.5879 42.0646
C 63.8947 34.8613 42.2193
C 63.321 35.5471 -1.44728
C 64.8095 35.3731 41.2953
C 62.3289 34.6334 -0.846513
C 65.7273 35.9257 40.3418
C 66.4826 36.6401 39.3232
C 67.8334 -1.74522 39.2671
C 68.0289 -0.954857 38.1078
C 66.8831 -1.00082 37.3798
C 65.8441 -1.65423 38.1356
H 61.5672 32.6469 -1.59829
H 63.485 32.8343 41.2605
H 61.7642 34.8535 0.0504478
H 66.6834 -0.66902 36.323
H 64.8011 -1.71096 37.8716
H 68.8883 -0.503053 37.7336
H 68.4979 -1.9126 39.9914
H 63.6153 36.5453 -1.12926
He 63.0064 34.4373 -1.89484
He 67.1213 -1.85063 38.2729
Fe 66.6988 -0.0810079 39.2483
C 67.0085 1.16745 40.8478
C 65.8789 0.350108 41.1734
C 66.7139 1.89744 39.6406
C 64.8863 0.47958 40.1322
C 65.3412 1.56036 39.2333
H 65.8829 -0.371935 42.0341
H 63.9941 -0.0939082 40.0898
H 67.9498 1.23067 41.3288
H 64.7 1.95671 38.4425
H 67.3321 2.60253 39.1208
He 65.8698 1.15008 40.2174
S 42.8539 26.2238 10.7109
C 43.7894 27.3318 9.64052
C 45.0063 26.6543 9.04817
H 44.0402 28.2653 10.1502
H 43.1359 27.5109 8.75095
H 45.7048 26.1964 9.81523
C 45.7578 27.5601 8.16633
H 44.6833 25.8034 8.47933
H 45.8987 28.5156 8.66685
H 45.1856 27.7979 7.26038
C 47.1347 26.992 7.6737
H 47.7884 26.873 8.4957
C 47.9221 27.9301 6.73792
H 47.0772 26.042 7.22994
H 48.3536 28.8741 7.23411
H 47.1377 28.1726 5.95433
C 49.184 27.27 6.14493
H 49.8203 27.0249 6.96096
C 50.0164 28.3466 5.33232
H 48.9092 26.3825 5.49268
H 50.2212 29.2792 5.87157
H 49.3467 28.6071 4.43932
C 51.2746 27.8589 4.64015
H 51.9861 27.4996 5.40022
C 51.9089 28.9832 3.76862
H 51.04 26.9192 4.15416
H 51.9839 29.8935 4.37333
H 51.2359 29.3438 3.00245
C 53.2658 28.5859 3.18675
H 53.7677 28.1706 4.03441
C 53.9625 29.7938 2.52426
H 53.1295 27.7329 2.53325
H 53.7187 30.6211 3.16596
H 53.5403 30.0088 1.52401
C 55.454 29.6326 2.52667
H 55.8236 29.2583 3.47055
C 56.2622 30.9232 2.11198
H 55.6723 28.966 1.67564
H 55.9207 31.4818 1.21065
H 57.2307 30.6185 1.90279
C 56.288 31.9382 3.21408
H 55.2497 32.3416 3.27406
C 57.3445 33.06 3.03041
H 56.4681 31.4488 4.13356
H 57.4011 33.687 3.89321
H 56.9917 33.751 2.3036
C 58.7371 32.6245 2.55257
C 60.8104 31.7508 2.61555
C 60.5512 32.1078 1.21335
C 59.2997 32.7102 1.24401
C 59.73 32.0433 3.41042
H 59.6325 31.691 4.43707
H 58.6982 32.8597 0.374564
H 61.6937 31.2685 3.11437
H 61.1507 31.9751 0.378261
He 59.8842 32.2551 2.18108
Fe 60.5163 33.7566 2.43102
C 60.1615 34.5159 4.35384
C 61.5881 34.4432 4.0696
C 61.8905 35.2048 2.87827
C 60.6312 35.7918 2.4346
C 63.2362 35.4775 2.3785
C 59.5601 35.4337 3.38608
C 64.4941 35.8564 1.89333
C 65.8414 36.275 1.50695
C 66.3458 36.0961 0.150835
C 67.5591 -1.90956 0.0681734
C 67.7665 -1.24835 1.34824
C 66.6376 -1.52429 2.19895
H 59.5993 34.0235 5.12947
H 62.3295 33.8167 4.52814
H 58.4903 35.7112 3.40468
H 68.5163 -0.507263 1.65478
H 66.5337 -1.01167 3.16161
H 68.2099 -1.78834 -0.81292
H 65.9742 35.5751 -0.727597
H 60.492 36.5685 1.72047
He 60.7499 34.9784 3.31629
He 66.7076 -1.81793 0.955573
Fe 67.8252 35.5717 1.56847
C 69.3233 35.3929 2.9368
C 69.8097 35.097 1.56712
C 68.3965 34.4107 3.30336
C 69.0202 33.9703 1.04715
C 68.1131 33.5784 2.1536
H 70.4807 35.6977 1.00116
H 69.1206 33.5868 0.0429243
H 69.6329 36.1708 3.65108
H 67.3094 32.8212 2.11085
H 67.8421 34.4851 4.20888
He 68.8427 34.6203 2.19302
S 42.8648 -0.573758 24.6849
C 44.4726 -0.663144 23.8993
C 45.0181 36.6564 23.7651
H 45.2279 -0.00061332 24.5163
H 44.5455 -0.254961 22.9123
H 45.9809 -2.03801 23.2561
C 44.2872 35.684 22.8327
H 45.1624 36.2358 24.7603
H 44.012 36.1476 21.8808
H 43.3744 35.6139 23.3492
C 44.8919 34.3043 22.6747
H 46.019 34.3948 22.6936
C 44.4949 33.6782 21.3118
H 44.6952 33.6061 23.562
H 44.8877 34.398 20.5697
H 43.4277 33.673 21.2027
C 45.0377 32.3357 20.8385
H 46.086 32.1564 21.2036
C 44.7617 31.9039 19.366
H 44.5328 31.6345 21.4799
H 45.3123 32.6346 18.7882
H 43.7572 32.1161 19.0823
C 45.3344 30.5493 19.0575
H 46.3125 30.4047 19.5274
C 45.3522 30.1779 17.5553
H 44.7313 29.7912 19.586
H 44.258 30.0973 17.3385
H 45.8205 29.2758 17.1609
C 45.7489 31.3746 16.566
H 45.0405 32.1489 16.7546
C 45.4948 31.1526 15.0588
H 46.8005 31.7423 16.7003
H 44.4294 30.9797 15.0354
H 46.091 30.1845 14.8184
C 45.7971 32.3611 14.1435
H 45.191 33.1235 14.6107
C 45.5948 32.0924 12.6033
H 46.8442 32.7163 14.3263
H 44.6905 31.5105 12.4914
H 46.5027 31.5523 12.248
C 45.55 33.3977 11.7464
H 44.7584 34.0791 12.0212
C 45.3922 33.1541 10.2704
H 46.4646 33.9581 11.8476
H 45.0368 34.0937 9.7565
H 44.5934 32.464 10.1281
C 46.6341 32.6284 9.49856
C 48.8076 32.6333 8.72155
C 47.9207 32.2217 7.65694
C 46.5624 32.1524 8.12402
C 48.0242 32.8615 9.87729
H 48.3897 33.2214 10.8235
H 45.5852 31.9865 7.5761
H 49.8352 32.7707 8.55727
H 48.2187 31.8985 6.68851
He 47.5467 32.6555 8.6963
Fe 47.4323 34.0926 8.22894
C 46.6342 36.046 8.46108
C 48.0643 36.1191 8.63647
C 48.625 35.5816 7.39787
C 47.5507 35.1671 6.53709
C 50.0421 35.584 7.09731
C 46.3586 35.4089 7.2353
C 51.4647 35.4957 6.77054
C 52.8391 35.3913 6.4578
C 53.8292 36.3576 6.82132
C 55.0605 35.7319 6.51028
C 54.8333 34.5297 5.78344
C 53.4599 34.2711 5.81265
H 45.8606 36.3916 9.16914
H 48.5612 36.6124 9.49507
H 45.3432 35.3339 6.83379
H 55.5767 33.8594 5.3972
H 52.9964 33.3411 5.45037
H 55.9385 36.2813 6.78854
H 53.6737 -1.37376 7.21114
H 47.4497 34.6588 5.58233
He 47.4218 35.6151 7.71829
He 54.0134 35.1846 6.43407
Fe 53.8712 36.1144 4.79308
C 52.2706 35.8697 3.50323
C 53.3453 35.1291 3.06923
C 52.5709 -1.52966 3.5152
C 54.4516 36.0315 2.83212
C 53.9484 -1.36301 3.13561
H 53.3971 34.0795 2.96774
H 55.5436 35.8717 2.50012
H 51.2999 35.5209 3.79541
H 54.6168 -0.527573 3.07868
H 51.8969 -0.700043 3.72867
He 53.3739 36.2932 3.26719
S 42.9583 28.1707 32.3394
C 44.3861 29.389 32.3029
C 44.8076 29.4279 30.8346
H 45.1585 29.386 33.0476
H 43.9509 30.2792 32.526
H 45.2531 28.5147 30.5313
C 45.7234 30.5411 30.425
H 43.9343 29.4384 30.1523
H 46.6152 30.3809 30.981
H 45.299 31.5048 30.8322
C 45.9344 30.649 28.9002
H 46.2963 29.7089 28.5453
C 47.0016 31.6841 28.5501
H 45.0093 30.8972 28.4008
H 47.9221 31.3601 29.0189
H 46.7794 32.6645 29.024
C 47.0994 31.7513 26.9956
H 47.5869 30.7968 26.6575
C 47.7666 33.0323 26.3444
H 46.1091 31.6912 26.4902
H 48.6679 33.1531 26.8084
H 47.0587 33.883 26.5421
C 48.1065 32.966 24.8771
H 48.8911 32.1925 24.6875
C 48.8858 34.299 24.5104
H 47.1825 32.6816 24.263
H 49.4963 34.5778 25.3906
H 48.2019 35.1866 24.3685
C 49.7371 34.2472 23.2349
H 50.3357 35.2271 23.2237
C 48.9991 34.2678 21.8808
H 50.5227 33.5252 23.2731
H 48.2171 35.0131 21.877
H 48.5162 33.3452 21.6152
C 49.9723 34.6954 20.7752
H 50.4744 35.6761 20.982
C 49.2549 34.6253 19.3938
H 50.8426 33.97 20.7966
H 48.5611 35.4505 19.1826
H 48.6968 33.6943 19.2494
C 50.2726 34.4904 18.2745
H 49.8202 34.5677 17.3277
C 51.0608 33.2075 18.142
H 50.9722 35.3699 18.322
H 51.8166 33.0857 18.8378
H 51.4911 33.1518 17.1379
C 50.2555 31.8978 18.1692
C 49.5352 29.7515 18.6901
C 48.9464 30.1684 17.4019
C 49.4588 31.4493 17.0526
C 50.3437 30.844 19.177
H 51.0162 30.7744 20.0275
H 49.3524 31.8913 16.0881
H 49.3151 28.7798 19.2086
H 48.3353 29.5722 16.6993
He 49.7958 30.8363 18.0325
Fe 50.9065 30.0877 17.3997
C 52.0466 28.4435 17.0397
C 51.48 29.0207 15.8439
C 52.0759 30.3463 15.7508
C 52.9653 30.5505 16.8633
C 51.848 31.1904 14.613
C 52.9194 29.3798 17.6979
C 51.7696 32.1469 13.5357
C 51.8261 33.2228 12.564
C 52.0233 33.1442 11.1281
C 52.0331 34.4381 10.6135
C 51.5956 35.3753 11.647
C 51.6391 34.6087 12.9052
H 51.7721 27.4841 17.3591
H 50.7307 28.6664 15.1254
H 53.6162 29.3006 18.5519
H 51.4238 36.4347 11.438
H 51.4841 34.88 13.8639
H 52.1311 34.763 9.56909
H 52.1668 32.3111 10.5043
H 53.5255 31.4247 17.1479
He 52.3843 29.5793 16.5967
He 51.7448 34.0824 11.733
Fe 53.4747 34.3947 12.0225
C 55.2839 35.2702 12.2868
C 55.0348 35.192 10.9008
C 55.3556 33.9122 12.789
C 54.8292 33.7894 10.5224
C 55.1045 33.0363 11.7084
H 54.8521 36.041 10.2819
H 54.5692 33.3858 9.52543
H 55.3509 36.1578 12.8462
H 55.3095 31.9745 11.8437
H 55.5412 33.6545 13.7575
He 54.8891 34.1484 11.665
S 42.806 32.7323 27.3953
C 44.0968 33.944 27.5357
C 44.3469 34.3867 28.8478
H 43.7582 34.7662 26.8419
H 45.0284 33.5681 27.2992
H 43.3474 34.6733 29.2416
C 45.2483 35.5528 29.0735
H 44.6492 33.4914 29.4516
H 46.1962 35.4069 28.5509
H 45.5734 35.7191 30.1217
C 44.7479 -1.86185 28.5491
H 44.5102 -2.02611 27.4963
C 45.769 -0.656819 28.735
H 43.8858 -1.52473 29.2002
H 46.0933 -0.622883 29.781
H 45.2088 0.292843 28.5685
C 46.9734 -0.734554 27.7643
H 47.4204 -1.76673 27.5803
C 48.2374 0.141468 28.1808
H 46.6286 -0.315628 26.7785
H 48.9968 -0.45187 28.6557
H 47.8677 0.826215 28.9196
C 48.9007 0.918991 27.0284
H 48.1639 1.58668 26.5192
C 49.4998 -0.0151781 26.0139
H 49.5603 1.58448 27.5765
H 48.7123 -0.676706 25.5516
H 50.2368 -0.702521 26.4761
C 50.144 0.811161 24.8186
H 49.307 1.32449 24.4306
C 50.809 0.00743768 23.7596
H 50.7987 1.62249 25.1635
H 50.1201 -0.760781 23.5692
H 51.6453 -0.445874 24.2699
C 50.9539 0.758044 22.4063
H 49.91 0.978428 22.0335
C 51.569 -0.0409911 21.2813
H 51.6263 1.62579 22.4936
H 50.9196 -0.895264 21.105
H 52.5287 -0.510651 21.6672
C 51.6999 0.709962 19.9622
H 50.8322 1.3154 19.7176
C 52.1724 -0.0706304 18.7815
H 52.5256 1.38535 20.1393
H 52.2818 0.538765 17.9316
H 51.4741 -0.887283 18.5188
C 53.5088 -0.770439 19.0184
C 55.7265 -1.34399 18.9052
C 55.0411 36.3202 19.551
C 53.6648 36.6791 19.6576
C 54.7434 -0.321348 18.5253
H 54.934 0.634961 18.0318
H 52.9637 36.0935 20.1927
H 56.7443 -1.31341 18.5892
H 55.3817 35.2666 19.749
He 54.5749 -1.39525 19.1023
Fe 54.3508 -2.01248 17.6219
C 53.126 36.2083 16.126
C 53.7585 -1.29276 15.8236
C 55.1981 -1.54333 15.6844
C 55.377 35.8324 16.0586
C 56.2228 -0.606611 15.5227
C 54.131 35.1997 16.2587
C 57.3102 0.289443 15.3958
C 58.4309 1.12347 15.3113
C 58.4558 2.32464 14.5067
C 59.7672 2.92326 14.5978
C 60.5296 2.00004 15.3935
C 59.7254 0.907579 15.8216
H 52.1111 35.9845 16.37
H 53.2231 -0.360747 15.7548
H 54.0854 34.1879 16.5652
H 61.5969 2.23277 15.6579
H 59.9125 0.0746964 16.3958
H 59.9886 4.00564 14.2297
H 57.5529 2.71567 13.9958
H 56.3335 35.3728 16.2335
He 54.2881 36.3885 15.9204
He 59.4666 1.72928 15.0159
Fe 59.7913 0.990164 13.7813
C 60.7618 -0.378888 12.6433
C 61.504 0.885769 12.595
C 59.4566 -0.152682 12.159
C 60.6567 1.85237 11.9993
C 59.3519 1.24496 11.76
H 62.5305 1.10274 12.9243
H 60.8291 2.93345 11.8878
H 61.3012 -1.29942 12.879
H 58.4215 1.7367 11.5767
H 58.6546 -0.892694 12.081
He 60.3709 0.643154 12.2344
S 43.0782 33.506 35.5441
C 44.2049 33.3839 34.0971
C 45.6471 33.0898 34.5689
H 44.0664 34.2325 33.4486
H 43.7694 32.4852 33.5502
H 46.0548 33.9396 35.0253
C 46.6449 32.7713 33.4152
H 45.6866 32.2765 35.2601
H 46.1705 32.04 32.7407
H 47.5259 32.3282 33.7989
C 47.1089 33.9759 32.598
H 46.2727 34.184 31.9585
C 48.2688 33.5619 31.7571
H 47.3048 34.9002 33.1964
H 48.1378 32.5702 31.3371
H 49.0215 33.3677 32.5549
C 48.704 34.5669 30.7061
H 47.7899 34.5992 30.1557
C 49.9613 34.1301 29.9222
H 48.8674 35.5936 31.0416
H 49.5302 33.359 29.2938
H 50.756 33.7901 30.6543
C 50.4906 35.1713 28.875
H 49.631 35.6154 28.3468
C 51.4624 34.4557 27.9351
H 50.8729 35.9173 29.4819
H 50.9261 33.7486 27.2884
H 52.2007 33.8154 28.5801
C 52.244 35.3756 26.9416
H 51.545 35.8313 26.2485
C 53.212 34.5929 26.0816
H 52.7166 36.1805 27.5233
H 52.6124 33.8051 25.5908
H 54.0096 34.1044 26.6502
C 53.8327 35.5365 24.9872
H 53.0878 36.1205 24.3971
C 54.9243 34.8872 24.0836
H 54.2654 36.4181 25.57
H 54.4929 34.1702 23.401
H 55.5812 34.3055 24.7251
C 55.8227 35.9308 23.2426
H 55.2111 36.4285 22.4675
C 57.0401 35.2578 22.5429
H 56.1285 -2.0172 23.8659
H 57.592 35.8289 21.7068
H 56.6251 34.3675 22.1689
C 58.1568 34.7951 23.4929
C 59.623 34.7844 25.3022
C 59.737 33.4682 24.6476
C 58.7885 33.4918 23.5447
C 58.7048 35.5942 24.5505
H 58.4614 36.6152 24.7443
H 58.5033 32.6198 22.9842
H 60.1341 35.1865 26.2149
H 60.3501 32.6856 24.979
He 59.049 34.5079 24.2841
Fe 60.1768 35.0026 23.2983
C 62.0337 34.2236 23.9455
C 61.5426 33.7345 22.6383
C 61.3932 34.9104 21.772
C 61.6124 36.099 22.5672
C 61.1557 35.0572 20.3446
C 62.041 35.6623 23.8471
C 60.9285 35.1085 18.985
C 60.5915 35.2748 17.5769
C 61.0751 34.3532 16.58
C 60.5238 34.7957 15.2781
C 59.7481 35.9485 15.4902
C 59.7293 36.2007 16.8882
H 62.1952 33.6947 24.9349
H 61.4949 32.6917 22.291
H 62.2711 36.3774 24.6703
H 59.0941 36.419 14.759
H 59.1049 -1.83872 17.3427
H 60.6664 34.2176 14.3734
H 61.6345 33.5019 16.7669
H 61.5151 -1.65722 22.2171
He 61.5838 34.816 22.9816
He 60.3451 35.2893 16.3956
Fe 61.641 36.2596 16.2137
C 63.6448 35.8251 16.0137
C 63.4419 36.5461 17.1842
C 63.2661 -2.04308 14.9076
C 62.8661 -0.881991 16.9287
C 62.7208 -0.813591 15.5038
H 63.7085 36.2011 18.1523
H 62.6566 -0.130621 17.6492
H 64.0542 34.8911 15.9183
H 62.2822 -0.0528343 14.9282
H 63.329 36.5844 13.8464
He 63.2671 -1.72729 16.0934
S 43.1453 32.8305 -0.134055
C 44.1701 31.5432 -0.903226
C 44.3807 31.7883 -2.38526
H 43.764 30.5601 -0.615667
H 45.0753 31.6128 -0.321012
H 44.807 30.8922 41.9796
C 45.334 32.9128 42.0204
H 43.4579 31.9934 41.8662
H 46.2483 32.7627 -2.19871
H 44.954 33.8758 -2.37679
C 45.4135 33.0814 40.443
H 45.4563 32.1374 39.9147
C 46.7252 33.7751 40.0182
H 44.462 33.5191 40.0223
H 47.5982 33.1521 40.3127
H 46.7781 34.6319 40.7041
C 46.6971 34.2632 38.6031
H 46.3516 33.4422 38.0278
C 48.0883 34.7416 38.1774
H 45.8744 34.9907 38.6046
H 48.8899 34.1113 38.5696
H 48.122 35.7323 38.6834
C 48.3247 34.9044 36.6419
H 48.3507 33.9476 36.168
C 49.7768 35.4981 36.3591
H 47.6413 35.6457 36.174
H 50.5417 34.928 36.9505
H 49.8796 36.5203 36.6691
C 50.155 35.3365 34.865
H 50.3567 34.2785 34.701
C 51.3803 36.0556 34.5048
H 49.3473 35.6118 34.2062
H 52.2264 35.7901 35.1329
H 51.0878 -1.69089 34.7051
C 51.7322 35.723 33.13
H 51.8285 34.6155 33.0111
C 52.9871 36.5317 32.7921
H 50.9143 36.092 32.4837
H 53.7773 36.2612 33.4536
H 52.8524 -1.11073 33.0183
C 53.6024 36.1773 31.44
H 53.9379 35.1537 31.5468
C 54.8266 -1.65437 30.9748
H 52.806 36.2955 30.703
H 55.5311 -1.5415 31.8094
H 54.5138 -0.641259 30.7485
C 55.6312 36.5965 29.7478
C 56.7177 35.1427 28.2812
C 57.0648 36.4857 27.9475
C 56.3458 -1.33563 28.7867
C 55.8934 35.21 29.4502
H 55.5229 34.3688 30.1251
H 56.4029 -0.301177 28.7522
H 57.0087 34.2081 27.8845
H 57.8234 36.6657 27.1638
He 56.486 36.1807 28.8846
Fe 57.6591 36.1673 29.8289
C 57.8408 35.1833 31.6966
C 58.623 34.5708 30.652
C 59.5263 35.5937 30.2709
C 59.3273 -1.99152 31.0877
C 60.6118 35.399 29.3797
C 58.1983 36.5414 31.8978
C 61.7022 35.0738 28.473
C 62.8579 34.8503 27.6576
C 63.6729 33.7185 27.6394
C 64.8447 34.0304 26.8529
C 64.7519 35.3392 26.2783
C 63.5347 35.8622 26.8427
H 57.049 34.6191 32.1681
H 58.5843 33.5299 30.2875
H 57.6201 -1.56191 32.5394
H 65.4668 35.8217 25.6227
H 63.2068 -1.85645 26.7367
H 65.676 33.3283 26.7455
H 63.4777 32.8484 28.1949
H 59.8997 -1.10555 31.0874
He 58.7272 35.7307 31.1233
He 63.8851 34.7239 27.0409
Fe 64.8042 35.348 28.405
C 66.2223 35.5273 29.886
C 64.9353 35.5869 30.4444
C 66.4336 36.6727 29.0276
C 64.2701 36.6425 29.7636
C 65.1906 -1.35688 28.8886
H 64.5316 34.922 31.1809
H 63.1894 -1.96621 29.9003
H 67.0426 34.872 30.1427
H 65.0768 -0.577332 28.2051
H 67.3341 -1.77901 28.423
He 65.5283 36.5837 29.8212
S 42.9852 26.44 5.16368
C 44.1257 25.63 4.05976
C 45.6343 26.1145 4.18105
H 43.7097 25.7642 3.05986
H 44.0006 24.585 4.3233
H 45.7747 27.2346 4.3362
C 46.5729 25.4868 3.0934
H 45.9977 25.5881 5.11799
H 46.4689 24.4182 3.1809
H 47.6196 25.6183 3.29895
C 46.327 25.9606 1.62642
H 46.8735 25.1332 1.04636
C 46.9554 27.3708 1.3771
H 45.2665 25.9801 1.39381
H 47.9978 27.4304 1.72625
H 46.3859 28.1144 1.99858
C 47.0557 27.7749 -0.101074
H 47.5262 26.9546 -0.566899
C 47.7764 29.1027 -0.443865
H 46.0209 27.6174 -0.530886
H 48.6873 29.144 0.20002
H 47.27 29.9813 -0.005543
C 47.9606 29.2871 -2.00188
H 48.0759 28.355 42.2429
C 49.1636 30.197 -2.31941
H 47.0487 29.7106 42.2394
H 50.1045 29.718 -2.14591
H 49.0199 30.99 -1.64761
C 49.1088 30.6195 40.9854
H 49.1677 29.8297 40.2132
C 50.2461 31.5901 40.5883
H 48.2215 31.1522 40.8978
H 50.5378 32.2515 41.404
H 49.7349 32.2166 39.8914
C 51.5661 30.8664 40.1188
H 52.2849 31.6899 40.018
C 51.4101 30.0637 38.8301
H 51.845 30.1852 40.8621
H 50.9397 30.644 38.112
H 50.6993 29.2437 38.848
C 52.654 29.5315 38.1832
H 52.531 29.2461 37.1307
C 53.3587 28.356 38.8026
H 53.3996 30.4256 38.2437
H 53.6379 28.4797 39.8478
H 54.3954 28.1564 38.3896
C 52.6154 27.0621 38.6228
C 51.2588 25.1186 38.972
C 51.778 25.0496 37.6453
C 52.554 26.2292 37.4237
C 51.7228 26.3623 39.5761
H 51.4925 26.6772 40.5701
H 53.001 26.5162 36.4938
H 50.5048 24.5152 39.6058
H 51.781 24.211 36.9688
He 51.8227 26.0646 38.3976
Fe 53.3439 25.1325 38.8445
C 53.6078 23.3052 39.4316
C 54.3583 23.5639 38.192
C 55.3089 24.5808 38.4757
C 55.1648 25.0347 39.8228
C 56.2511 25.108 37.5298
C 54.2007 24.1758 40.4284
C 57.0826 25.6384 36.4231
C 57.8099 26.2598 35.3086
C 58.6949 25.677 34.3118
C 59.0143 26.7692 33.4172
C 58.5197 27.9926 33.9361
C 57.7709 27.6675 35.1299
H 52.8683 22.5252 39.5987
H 54.3734 23.0064 37.2309
H 53.9409 24.2869 41.46
H 58.5966 29.014 33.5453
H 57.1842 28.2651 35.7803
H 59.6197 26.7103 32.5414
H 58.9642 24.6425 34.2165
H 55.8157 25.7935 40.3356
He 54.5133 24.1191 39.2194
He 58.198 26.8362 34.2489
Fe 59.6483 27.1333 35.3468
C 61.1075 28.6046 35.423
C 61.6277 27.4833 34.6907
C 60.7577 28.1916 36.7324
C 61.502 26.3009 35.5488
C 60.9843 26.783 36.7871
H 61.9613 27.4161 33.6575
H 61.7749 25.3238 35.3023
H 60.9291 29.5883 34.9484
H 60.7918 26.2592 37.7471
H 60.4134 28.8966 37.5061
He 60.8498 27.427 35.7657
S 42.8638 21.3073 4.24014
C 43.917 20.5883 2.98356
C 45.2006 21.4246 2.87958
H 43.4326 20.542 1.95238
H 44.1948 19.5768 3.21315
H 44.8876 22.3701 2.44784
C 46.2943 20.7966 2.01776
H 45.5718 21.6737 3.88356
H 45.8078 20.591 1.09252
H 46.6788 19.8608 2.29165
C 47.4348 21.7941 1.62366
H 46.9874 22.5965 1.12278
C 48.6326 21.1919 0.845359
H 47.8415 22.2885 2.49203
H 48.3139 20.6043 0.0121659
H 49.1334 20.5035 1.48437
C 49.6792 22.2522 0.39346
H 49.8701 22.8826 1.28508
C 49.1573 23.2261 -0.696939
H 50.5882 21.7807 0.217947
H 48.1954 23.7382 -0.398488
H 48.7265 22.5978 -1.48546
C 50.2312 24.1945 -1.26007
H 51.1653 23.7455 -1.51699
C 50.4289 25.43 -0.330506
H 49.8105 24.6509 -2.14426
H 51.0849 25.1261 0.480897
H 49.4815 25.6454 0.143338
C 50.9328 26.7558 -0.911766
H 50.4896 26.9249 -1.88315
C 52.442 26.8317 -0.914763
H 50.5352 27.6519 -0.342129
H 52.774 25.9622 -1.52739
H 52.8663 26.6304 0.0743183
C 52.906 28.0872 -1.53478
H 52.5623 28.3268 42.1788
C 54.373 28.1644 -1.6437
H 52.5014 28.8909 -0.855397
H 54.6434 27.5582 42.277
H 54.8448 27.6623 -0.808373
C 54.9318 29.5873 -1.75854
H 54.4769 30.0244 42.1422
C 56.4758 29.6312 -1.87865
H 54.6838 30.1708 -0.838522
H 56.9782 29.3084 -0.983559
H 56.7486 30.6063 -1.84793
C 57.0184 29.0344 41.5378
C 58.2229 27.8834 39.9605
C 57.3555 28.7999 39.2684
C 56.6327 29.5343 40.2332
C 58.0643 28.0567 41.3697
H 58.532 27.5321 42.2081
H 55.9288 30.3062 40.119
H 58.9772 27.2474 39.5174
H 57.3512 28.956 38.2396
He 57.3331 28.5696 40.5276
Fe 58.6504 29.925 40.5757
C 59.3368 31.2625 41.9772
C 60.0872 30.067 42.1873
C 60.7946 29.6807 41.0351
C 60.5727 30.6755 40.025
C 61.663 28.5284 40.9424
C 59.7085 31.6869 40.6266
C 62.6405 27.3999 40.8489
C 63.6939 26.5047 40.7741
C 64.7906 26.5262 41.6904
C 65.7091 25.5567 41.2501
C 65.1247 24.8497 40.1228
C 63.8819 25.473 39.7874
H 58.5871 31.7092 -2.13175
H 59.9928 29.4751 -1.7198
H 59.29 32.5133 40.1049
H 65.5241 24.0232 39.5043
H 63.3001 25.2004 38.9314
H 66.6569 25.3253 41.7236
H 64.9072 27.0742 -2.12252
H 60.9822 30.7458 39.0163
He 59.9219 30.4932 41.1284
He 64.5082 25.5741 40.8818
Fe 65.3741 27.011 39.7565
C 66.1286 27.1221 37.8989
C 66.7201 28.1017 38.7603
C 64.7176 27.4452 37.8095
C 65.6998 28.9792 39.2625
C 64.5122 28.6193 38.6233
H 67.7901 28.2312 38.8656
H 65.8774 29.8762 39.902
H 66.7039 26.3597 37.4003
H 63.5661 29.0964 38.8376
H 64.0167 26.9656 37.1204
He 65.5281 27.9115 38.6028
S 43.0187 21.5671 10.1975
C 43.8779 20.9465 8.71986
C 45.1359 21.8018 8.42035
H 43.2714 21.125 7.88772
H 44.0084 19.8887 8.89999
H 44.8514 22.8096 8.37717
C 45.8479 21.3303 7.16042
H 45.8404 21.7587 9.24367
H 45.1135 21.1734 6.39424
H 46.4067 20.4186 7.35085
C 46.8232 22.339 6.64745
H 46.3201 22.98 5.96412
C 48.0818 21.8709 5.89852
H 47.1391 22.9546 7.45412
H 47.8183 21.2842 5.01531
H 48.765 21.27 6.48993
C 48.9303 23.0812 5.49601
H 48.3532 23.8129 4.96184
C 50.2236 22.6726 4.66509
H 49.2866 23.4493 6.38955
H 49.9941 21.9295 3.90735
H 50.9144 22.0684 5.25454
C 51.0362 23.8251 4.03907
H 50.5185 24.4114 3.27091
C 52.3462 23.3732 3.40658
H 51.1867 24.5417 4.89728
H 52.1427 22.7256 2.56986
H 52.8032 22.8505 4.21027
C 53.2689 24.5294 2.92345
H 52.7749 25.1963 2.21044
C 54.4462 23.9892 2.09748
H 53.5016 25.055 3.80174
H 54.2869 23.6882 1.08621
H 54.8975 23.1301 2.57999
C 55.5665 25.003 2.01311
H 55.0604 25.9659 1.79475
C 56.6434 24.704 0.984998
H 55.9606 25.1326 3.04092
H 56.1829 25.0101 0.0130862
H 56.9478 23.6482 0.956599
C 57.871 25.616 1.11325
H 57.4352 26.5956 1.30825
C 58.7655 25.7449 -0.0712895
H 58.5121 25.3255 1.97522
H 58.2501 25.9407 -1.01291
H 59.2573 24.8075 -0.277737
C 59.904 26.7881 0.0266574
C 61.9945 27.7573 -0.456432
C 61.4111 28.5205 0.603245
C 60.0928 27.9554 0.886949
C 61.1397 26.6944 -0.747627
H 61.3963 25.8266 -1.34091
H 59.3591 28.3796 1.51574
H 62.848 27.9214 -1.06973
H 61.8496 29.33 1.20605
He 60.7809 27.7131 -0.143126
Fe 61.589 26.5498 1.23862
C 61.9044 24.6903 2.02569
C 63.01 25.2007 1.24132
C 63.4417 26.3879 1.81173
C 62.7024 26.7303 2.96386
C 64.5243 27.2468 1.29936
C 61.6836 25.7099 3.09798
C 65.6278 27.9886 0.724435
C 66.7715 28.751 0.277374
C 67.5509 29.5661 1.11042
C 68.5313 30.2848 0.324819
C 68.1492 29.9819 -1.06257
C 67.2323 28.9616 -1.04685
H 61.3444 23.8033 1.85058
H 63.4834 24.8204 0.379105
H 60.9492 25.6234 3.86753
H 68.458 30.3178 -2.02889
H 66.9218 28.4224 -2.00773
H 69.3193 30.933 0.643159
H 67.3788 29.5737 2.17822
H 62.7264 27.6146 3.61153
He 62.4587 25.8448 2.1016
He 67.394 29.7538 -0.0542348
Fe 66.532 30.6755 -0.305835
C 65.9745 32.4505 -1.20939
C 65.0577 32.2358 -0.0639499
C 65.9316 31.3499 -2.15861
C 64.5526 30.8654 -0.351604
C 64.991 30.4032 -1.59904
H 64.9956 32.9376 0.77379
H 63.8991 30.3033 0.322305
H 66.6219 33.2929 -1.32804
H 64.7491 29.4769 -2.07562
H 66.4504 31.1618 41.6847
He 65.2804 31.4554 -1.10095
S 42.9888 26.4889 16.8552
C 44.2588 26.093 15.5181
C 44.9139 27.3521 14.8558
H 43.6402 25.5372 14.7717
H 45.0231 25.4246 15.9372
H 44.2905 28.199 14.8113
C 45.5577 27.0972 13.4559
H 45.6522 27.7487 15.5348
H 44.7416 26.9762 12.698
H 46.0765 26.135 13.5288
C 46.5595 28.1847 13.0347
H 46.1028 29.0303 12.581
C 47.6835 27.6905 12.0819
H 47.0555 28.4655 13.9011
H 47.0874 27.3616 11.2871
H 48.1648 26.7835 12.5361
C 48.7441 28.7273 11.6238
H 48.2299 29.5263 11.1671
C 49.8477 28.2064 10.6076
H 49.1794 29.1091 12.5584
H 49.3593 27.8036 9.71745
H 50.4302 27.3804 11.0433
C 50.6316 29.3155 10.0045
H 49.9735 30.0671 9.60142
C 51.6137 28.8367 8.96429
H 51.1019 29.8523 10.8042
H 51.1618 28.5882 7.97883
H 52.203 27.9903 9.22052
C 52.663 29.9494 8.69108
H 52.1686 30.8823 8.60631
C 53.5077 29.5625 7.49625
H 53.3157 30.0493 9.54091
H 52.8693 29.4017 6.70457
H 54.0915 28.6402 7.76876
C 54.514 30.6141 7.03244
H 54.8918 30.2197 6.0914
C 55.628 30.8978 7.99798
H 54.0187 31.4729 6.79326
H 55.9797 29.9648 8.43091
H 55.2428 31.444 8.76436
C 56.8409 31.6439 7.48785
H 57.5469 31.0234 6.98631
C 57.6662 32.0957 8.68364
H 56.6019 32.543 6.96218
H 57.9963 31.2947 9.30008
H 57.0221 32.7129 9.26457
C 58.96 32.7871 8.3352
C 61.1801 33.1064 7.7543
C 60.4374 34.3623 7.72739
C 59.116 34.1854 8.18334
C 60.2287 32.0763 8.16042
H 60.3948 31.0121 8.19399
H 58.2946 34.8623 8.22941
H 62.2141 32.9563 7.41343
H 60.7633 35.3312 7.3802
He 60.0108 33.2165 7.8489
Fe 60.2242 33.5236 9.71232
C 60.212 32.8404 11.5922
C 61.5407 33.4342 11.3108
C 61.3196 34.8184 10.9615
C 59.9121 35.0999 11.0864
C 62.1766 35.7784 10.3664
C 59.2585 33.853 11.4855
C 63.082 -1.98315 9.71422
C 64.0774 -1.14407 8.98956
C 63.8034 -0.327898 7.87392
C 65.0177 0.307608 7.36366
C 66.0216 -0.0761163 8.26157
C 65.4594 -0.899045 9.27644
H 60.0265 31.7729 11.8352
H 62.4688 32.8393 11.2785
H 58.1579 33.8275 11.5473
H 67.0247 0.343625 8.23521
H 65.951 -1.30069 10.1811
H 65.0976 0.924304 6.4557
H 62.8116 -0.22596 7.50542
H 59.4605 36.1069 11.0288
He 60.4764 34.0001 11.2169
He 64.8769 -0.634007 8.12858
Fe 65.2352 -1.8237 7.40632
C 66.2128 35.0842 7.82345
C 66.4024 35.5822 6.51412
C 64.7975 34.8278 7.87237
C 65.2018 35.6123 5.76617
C 64.1047 35.1905 6.68531
H 67.3551 35.9085 6.09478
H 65.2153 35.9535 4.72701
H 66.9206 34.9696 8.64148
H 63.0276 35.0954 6.50681
H 64.2409 34.5064 8.77708
He 65.3309 35.3912 6.96447
S 43.2217 22.675 24.291
C 44.9825 22.6573 23.8702
C 45.1075 23.0206 22.4392
H 45.3413 21.6091 24.0913
H 45.592 23.3255 24.5081
H 44.5745 22.2874 21.7938
C 46.5108 23.4313 21.8764
H 44.3752 23.8619 22.2741
H 47.2865 22.8717 22.3576
H 46.7173 24.5044 22.1475
C 46.7113 23.1899 20.3941
H 46.8916 22.1204 20.1258
C 47.912 23.9684 19.8169
H 45.8192 23.3972 19.8845
H 48.7572 23.3901 20.1213
H 47.9536 24.986 20.2759
C 47.8647 24.0806 18.2785
H 47.419 23.1932 17.91
C 49.2455 24.2926 17.6078
H 47.1255 24.9027 18.0523
H 49.973 23.5221 17.8132
H 49.6447 25.2501 17.9427
C 49.1861 24.362 16.076
H 48.5936 23.5221 15.665
C 50.6093 24.388 15.4478
H 48.6485 25.2324 15.7281
H 51.2654 23.5796 15.7379
H 51.1266 25.2354 15.8389
C 50.5621 24.4796 13.9096
H 50.1443 23.5293 13.5572
C 51.9134 24.885 13.3348
H 49.8394 25.2379 13.614
H 51.8132 24.5026 12.3342
H 52.7425 24.3239 13.6954
C 52.2935 26.3405 13.4555
H 51.4546 27.0219 13.2142
C 53.4221 26.7248 12.4973
H 52.49 26.5247 14.5755
H 52.926 26.6442 11.5373
H 54.2521 26.0832 12.4814
C 53.725 28.2391 12.6575
H 52.7579 28.7724 12.6148
C 54.8138 28.6153 11.6824
H 54.0433 28.3963 13.6697
H 54.8128 29.6445 11.4429
H 54.479 28.1241 10.7873
C 56.3227 28.2527 11.8496
C 58.3153 27.3535 12.6417
C 58.6495 28.2299 11.5234
C 57.4231 28.8287 11.1472
C 56.9162 27.3231 12.7916
H 56.404 26.7651 13.5503
H 57.3426 29.5202 10.3787
H 59.1555 26.8739 13.2115
H 59.5918 28.4745 11.0513
He 57.5025 28.001 11.9552
Fe 57.6791 29.3538 12.9877
C 56.6086 29.1304 14.6581