LAMMPS data file via write_data, version 21 Jul 2020, timestep = 24000000

21305 atoms
5 atom types
2251 bonds
5 bond types
4500 angles
9 angle types
6741 dihedrals
13 dihedral types

-500.0 500.0 xlo xhi
-500.0 500.0 ylo yhi
-500.0 500.0 zlo zhi

Masses

1 12.01115
2 1.00797
3 12.01115
4 32.064
5 196.967

Atoms # full

2966 2 5 0.0 -8.191782478486767 -23.90453959529836 -18.83500114073334 0 0 0
2971 2 5 0.0 -5.434626385493071 -25.609607619044727 -19.284105518878658 0 0 0
3033 2 5 0.0 -2.7598621907397187 -24.105475235359783 -19.91678052014388 0 0 0
3037 2 5 0.0 -5.499584515015575 -22.303390499396105 -19.258299642195425 0 0 0
3038 2 5 0.0 -0.047615978377369444 -22.3454542099986 -20.847258401290812 0 0 0
2662 2 5 0.0 -13.56435021932999 -19.321968616160763 -20.06107476391735 0 0 0
2359 2 5 0.0 -16.425409578853728 -17.67376409304484 -19.46491822864509 0 0 0
2394 2 5 0.0 -13.408111440550044 -15.952947840411065 -20.285623006948374 0 0 0
2661 2 5 0.0 -10.682575740523303 -20.775137545991015 -20.81170592427893 0 0 0
2703 2 5 0.0 -10.660145834134989 -17.538507302988613 -21.25466122774373 0 0 0
2709 2 5 0.0 -7.924015444634354 -19.075581342281012 -21.40682220899178 0 0 0
2708 2 5 0.0 -7.740973436723203 -15.87769217683649 -21.62781964532646 0 0 0
2697 2 5 0.0 -8.414078377846383 -17.461382772841908 -18.816871845942032 0 0 0
3035 2 5 0.0 -2.7780922250639466 -20.686590100583032 -19.870408117039386 0 0 0
2706 2 5 0.0 -5.008203498535158 -17.687959018440687 -22.18869628803605 0 0 0
3086 2 5 0.0 -2.646937650876217 -17.53062000047997 -20.06376892950294 0 0 0
3036 2 5 0.0 -5.447380475630213 -18.961788890758008 -19.335096305958416 0 0 0
2705 2 5 0.0 -5.470367340989979 -15.847396208767336 -19.37342817471954 0 0 0
2710 2 5 0.0 -2.3071224863829514 -16.097423204118336 -23.036017849094048 0 0 0
3039 2 5 0.0 -0.04383657079204163 -19.09232036250671 -20.684296606628646 0 0 0
3098 2 5 0.0 -0.04660796786930012 -15.871309055640053 -20.789968771463343 0 0 0
2395 2 5 0.0 -16.379388018419522 -14.501631697265996 -19.449821172489887 0 0 0
2391 2 5 0.0 -13.704456480206684 -12.727070763364903 -20.249805321300695 0 0 0
2397 2 5 0.0 -16.606387765063005 -11.134459046255687 -19.66141090842536 0 0 0
2389 2 5 0.0 -10.557066013877913 -14.354138888097236 -20.964453016079002 0 0 0
2390 2 5 0.0 -10.887746054440766 -11.011533403337744 -21.126542672562966 0 0 0
2398 2 5 0.0 -8.050422943876669 -12.55961313787382 -21.7540070302537 0 0 0
2432 2 5 0.0 -8.378254707423322 -10.950798904781564 -18.947364633158305 0 0 0
2698 2 5 0.0 -8.190287752362325 -14.252603670503749 -18.781709749225318 0 0 0
2742 2 5 0.0 -5.545727069514925 -12.633907408097077 -19.6381741358542 0 0 0
2707 2 5 0.0 -4.92511754486076 -14.314747551079908 -22.373094220985703 0 0 0
2441 2 5 0.0 -5.279899797400729 -11.232269357723217 -22.466350607405904 0 0 0
2740 2 5 0.0 -2.6919763204282243 -14.335782184700438 -20.042662625381972 0 0 0
2744 2 5 0.0 -2.0474758872061227 -12.814780157650425 -23.09687322351037 0 0 0
2741 2 5 0.0 -2.844277710496072 -11.180061631461609 -20.27446043503316 0 0 0
2445 2 5 0.0 -2.6325092854117926 -9.694272696605232 -23.19960384881955 0 0 0
2396 2 5 0.0 -13.785987843025854 -9.41841388760993 -20.37589397827263 0 0 0
2281 2 5 0.0 -13.671765586285924 -6.139650574485119 -20.259112317025643 0 0 0
2266 2 5 0.0 -16.44880094684123 -7.936479625472939 -19.745049839267413 0 0 0
2443 2 5 0.0 -8.073909704214737 -9.268482926607607 -21.97615328520375 0 0 0
2438 2 5 0.0 -11.044138223492938 -7.853802774840667 -21.134179954459817 0 0 0
2280 2 5 0.0 -10.950147204444598 -4.727031647191994 -21.1094137086654 0 0 0
2444 2 5 0.0 -8.093097861072444 -6.007608104911231 -21.996817366696067 0 0 0
2433 2 5 0.0 -8.487822614851956 -7.798164076447035 -19.011653836376542 0 0 0
2503 2 5 0.0 -8.527323116172733 -4.657602279902485 -19.053015080315532 0 0 0
2440 2 5 0.0 -5.5928584994623245 -9.425587327146284 -19.60396112864505 0 0 0
2509 2 5 0.0 -5.65198044421406 -6.213392059221923 -19.66387028866641 0 0 0
2442 2 5 0.0 -5.270683291034968 -7.861110784586788 -22.577375007829048 0 0 0
2791 2 5 0.0 -2.813068491319683 -7.951891243930993 -20.29852972113538 0 0 0
2508 2 5 0.0 -3.0054594913118247 -4.4179577507832954 -20.532608839133122 0 0 0
2513 2 5 0.0 -0.16667561499616326 -6.011959604097596 -20.98240464334011 0 0 0
2307 2 5 0.0 -8.570712473174487 -1.4671282673798183 -19.16176647681992 0 0 0
2511 2 5 0.0 -5.80472524702234 -2.9154360238518873 -19.9277411974624 0 0 0
2313 2 5 0.0 -5.885460174743595 0.6262763593289907 -19.836067385541902 0 0 0
2510 2 5 0.0 -3.140276475960922 -1.0103767778416755 -20.508756135460953 0 0 0
2512 2 5 0.0 -0.23356940734695877 -2.807976316747343 -21.22639844170367 0 0 0
3418 2 5 0.0 -8.435312031012444 -28.751573719834308 -15.920879252396315 0 0 0
3415 2 5 0.0 -8.844106463341435 -30.53642154428904 -13.160001202714387 0 0 0
3413 2 5 0.0 -11.549334539378135 -28.786641403558345 -12.54281898228033 0 0 0
3414 2 5 0.0 -6.086259362582825 -28.967431691163274 -13.735332994529994 0 0 0
3718 2 5 0.0 -3.261134094886004 -30.325821355790744 -14.585631066799573 0 0 0
3781 2 5 0.0 -0.6182031351863886 -28.669219501707822 -14.930871673058645 0 0 0
2654 2 5 0.0 -19.393029241289835 -22.8942019477014 -13.16308057617072 0 0 0
2962 2 5 0.0 -13.895876209735123 -25.81859448611554 -14.559220711231086 0 0 0
2970 2 5 0.0 -13.69380768829014 -23.949623071930493 -17.393188852395728 0 0 0
2659 2 5 0.0 -16.61403077038898 -22.49183798820376 -16.726368253841123 0 0 0
2960 2 5 0.0 -13.861100101726558 -22.571023397948142 -14.389519527186893 0 0 0
2963 2 5 0.0 -16.54823616315896 -24.227445168401633 -13.810250941029002 0 0 0
2965 2 5 0.0 -11.071954812480527 -27.2161924908847 -15.309626982052013 0 0 0
2967 2 5 0.0 -11.057843968802276 -22.314232816266802 -17.84499356553933 0 0 0
2969 2 5 0.0 -11.133494539246875 -25.55129250355851 -18.037788008754433 0 0 0
2968 2 5 0.0 -11.204614535798097 -24.131554435419986 -15.256067364545986 0 0 0
2964 2 5 0.0 -8.35890040180225 -25.55487030629357 -15.957430769634737 0 0 0
3028 2 5 0.0 -8.493658877920952 -22.404599801079414 -15.909477534339379 0 0 0
3021 2 5 0.0 -8.744683518282965 -23.953082367828213 -13.06503966300492 0 0 0
3417 2 5 0.0 -8.749456065532998 -27.07758780975319 -12.945793177547628 0 0 0
3018 2 5 0.0 -6.071822707869574 -22.416013720464324 -13.726817012476731 0 0 0
3456 2 5 0.0 -6.101990751887102 -25.56943368368704 -13.674557623657034 0 0 0
3416 2 5 0.0 -5.765052064557557 -27.20949735367864 -16.441305297825874 0 0 0
3020 2 5 0.0 -5.735646871891546 -23.885588831894836 -16.481342506107097 0 0 0
3451 2 5 0.0 -3.3205512048116423 -27.10438617364055 -14.422052698887615 0 0 0
3460 2 5 0.0 -2.9202928906579944 -25.846989702970493 -17.248247172535653 0 0 0
3457 2 5 0.0 -0.6136651204684928 -25.452864113998846 -15.020028176619835 0 0 0
3454 2 5 0.0 -3.2370159200916255 -23.888940841339448 -14.255651499314633 0 0 0
3032 2 5 0.0 -2.9393371539301336 -22.380228874353115 -16.99264279540665 0 0 0
3459 2 5 0.0 -0.1605174107841775 -23.809943606925142 -17.903948548000702 0 0 0
3458 2 5 0.0 -0.49415041982282754 -22.132875777397775 -14.91139205672684 0 0 0
2660 2 5 0.0 -19.448542071760397 -20.95582176290862 -15.880541237664072 0 0 0
2356 2 5 0.0 -21.978432577205698 -16.17945333994128 -15.530923812825048 0 0 0
2358 2 5 0.0 -19.124536935815154 -17.708830647668176 -16.09590139587714 0 0 0
2651 2 5 0.0 -19.510784088572198 -19.209926636716443 -13.244040385280947 0 0 0
2377 2 5 0.0 -19.53228074193019 -15.798704245502378 -13.297396712717608 0 0 0
2656 2 5 0.0 -22.208529773565893 -21.11581355250792 -12.695890548080593 0 0 0
2357 2 5 0.0 -22.259668036015867 -17.58198643268538 -12.655879296215538 0 0 0
2663 2 5 0.0 -13.785077269828138 -20.85357183068018 -17.36772828825492 0 0 0
2658 2 5 0.0 -16.780653967059465 -20.884545869001805 -13.783220068448404 0 0 0
2657 2 5 0.0 -16.48674227857817 -19.30107006853498 -16.488677958111726 0 0 0
2694 2 5 0.0 -13.999827982354438 -19.238081190282816 -14.551405519241403 0 0 0
2704 2 5 0.0 -13.817018760653802 -17.559317359702007 -17.368759865019474 0 0 0
2695 2 5 0.0 -16.868883867551045 -17.565990777851432 -13.83689569895863 0 0 0
2689 2 5 0.0 -16.457634659464638 -16.011837137869065 -16.645931750211766 0 0 0
2691 2 5 0.0 -14.12593220642759 -15.998076638886754 -14.621701226594496 0 0 0
3029 2 5 0.0 -8.167037558311772 -20.632458014508654 -18.696824335559068 0 0 0
3030 2 5 0.0 -11.206968413882388 -20.734575636805427 -15.207627464925421 0 0 0
2700 2 5 0.0 -11.269321859869171 -17.466356942404957 -15.305074914104281 0 0 0
2702 2 5 0.0 -10.951189766177242 -19.19524169366247 -17.94473783461186 0 0 0
3025 2 5 0.0 -8.534708104015253 -19.006844227248394 -15.979121904545607 0 0 0
3027 2 5 0.0 -8.88122304811452 -17.344497286845826 -13.259047368299173 0 0 0
3026 2 5 0.0 -8.644067414454735 -20.68467979045665 -13.066651981760867 0 0 0
2699 2 5 0.0 -11.123922289436774 -15.941116777325146 -18.062254357298066 0 0 0
2696 2 5 0.0 -8.597747044952369 -15.88817198483078 -16.051802997354763 0 0 0
3012 2 5 0.0 -11.609715802374879 -19.258091607488463 -12.615502405426437 0 0 0
3022 2 5 0.0 -6.057557762308813 -19.188646474516258 -13.80616799525295 0 0 0
3024 2 5 0.0 -5.682554061791335 -17.55350890083638 -16.49994757182084 0 0 0
3023 2 5 0.0 -5.817341111830011 -20.713921904173105 -16.587321140186948 0 0 0
3017 2 5 0.0 -3.321560032710088 -20.64344277966061 -14.37316603139509 0 0 0
3034 2 5 0.0 -2.9832320429049624 -19.125611794554867 -17.155956620529427 0 0 0
3081 2 5 0.0 -3.2979510438354422 -17.527922816123276 -14.440350022411797 0 0 0
3088 2 5 0.0 -0.5703078957322739 -18.944477905668855 -15.111517752973368 0 0 0
3090 2 5 0.0 -0.30853003580713434 -17.518282577017676 -17.888745815376197 0 0 0
3031 2 5 0.0 -0.16109128737273698 -20.679322557066552 -17.855797320757134 0 0 0
3083 2 5 0.0 -6.168478200047999 -15.8475311676791 -13.923220077620094 0 0 0
3092 2 5 0.0 -3.0329406462945268 -15.950430247370392 -17.270107173005968 0 0 0
3089 2 5 0.0 -0.6324200896252936 -15.738726448952812 -15.111578534010743 0 0 0
2386 2 5 0.0 -19.36265108282551 -14.572379676086685 -16.223038517325246 0 0 0
2387 2 5 0.0 -19.471415197480095 -11.224045878743382 -16.214708569613144 0 0 0
2381 2 5 0.0 -22.191806997891554 -12.85939665843562 -15.449779721247792 0 0 0
2372 2 5 0.0 -19.616224503193955 -12.609948702898711 -13.424357025396516 0 0 0
2380 2 5 0.0 -22.479276187916827 -11.192502624996918 -12.749585350398366 0 0 0
2378 2 5 0.0 -22.50757827131633 -14.469816735506397 -12.725751884854208 0 0 0
2263 2 5 0.0 -22.181778651698345 -9.571432517582643 -15.685249205211548 0 0 0
2379 2 5 0.0 -19.709551246490932 -9.437872868742943 -13.47057753506935 0 0 0
2392 2 5 0.0 -13.857569259122561 -14.222612554520133 -17.37446123715404 0 0 0
2384 2 5 0.0 -16.83667247446264 -14.341939251433637 -13.930171388099065 0 0 0
2383 2 5 0.0 -16.602069643821455 -12.755244638028385 -16.585630075365316 0 0 0
2393 2 5 0.0 -13.903346137311571 -11.040457415247143 -17.58908031294874 0 0 0
2382 2 5 0.0 -14.0219476739524 -12.601215657247412 -14.681893557341793 0 0 0
2385 2 5 0.0 -16.83958981124785 -11.03324088543102 -13.97260514219801 0 0 0
2424 2 5 0.0 -16.729739455840434 -9.51809210950865 -16.90441860412071 0 0 0
2426 2 5 0.0 -14.284434652811509 -9.43661821022339 -14.81873422727694 0 0 0
2701 2 5 0.0 -11.399083231876402 -14.311488666400269 -15.287712848838831 0 0 0
2435 2 5 0.0 -11.38973479094848 -10.967219995988321 -15.478235285335682 0 0 0
2388 2 5 0.0 -11.099085215975194 -12.669989441331449 -18.268685481087175 0 0 0
2736 2 5 0.0 -8.726781853603864 -12.631982178120474 -16.07033769081605 0 0 0
2738 2 5 0.0 -9.165852385047266 -10.955759334887993 -13.300150581004738 0 0 0
2737 2 5 0.0 -8.852642662262754 -14.208965514504985 -13.259146937634428 0 0 0
2730 2 5 0.0 -11.730051924134168 -12.629614448187542 -12.581623480490807 0 0 0
2434 2 5 0.0 -11.212873926807795 -9.466045113815246 -18.344067048288494 0 0 0
2733 2 5 0.0 -6.239130518055273 -12.58222821055432 -13.980824822481317 0 0 0
2735 2 5 0.0 -6.01238302869795 -10.974282780359042 -16.793097055015078 0 0 0
2734 2 5 0.0 -5.835596808257934 -14.204523441963058 -16.679396055664274 0 0 0
3082 2 5 0.0 -3.4245150308436147 -14.114417586530164 -14.652543408997621 0 0 0
3091 2 5 0.0 -0.4588683486439196 -14.225848657890388 -17.929754646429178 0 0 0
2739 2 5 0.0 -3.240554447367271 -12.601726790507774 -17.47128782427386 0 0 0
2786 2 5 0.0 -3.46197736408781 -10.901858175054425 -14.817413580743965 0 0 0
2795 2 5 0.0 -0.4483804002129198 -10.949381913404018 -18.166758627875076 0 0 0
3174 2 5 0.0 -0.8048529177132647 -12.484748220298641 -15.365261929462687 0 0 0
3162 2 5 0.0 -1.166763842635833 -10.716639339052573 -12.593384233550664 0 0 0
3161 2 5 0.0 -0.9674755358295036 -13.888519331590699 -12.575974388789191 0 0 0
2265 2 5 0.0 -19.36116586955258 -7.9216677032423215 -16.375791064189418 0 0 0
2279 2 5 0.0 -19.712098794213606 -4.68863739035794 -16.54526758793189 0 0 0
2270 2 5 0.0 -19.61389184823828 -6.2125398737468 -13.46109819901375 0 0 0
2275 2 5 0.0 -22.611077932987648 -4.768033301570655 -13.045527359331988 0 0 0
2264 2 5 0.0 -22.518991214603705 -8.025337993722657 -12.718111244560557 0 0 0
2439 2 5 0.0 -14.070387253910567 -7.726790942085281 -17.568658055959737 0 0 0
2430 2 5 0.0 -17.02457495235589 -7.877037793732498 -14.198516904002648 0 0 0
2276 2 5 0.0 -16.80997493561743 -6.226535505530629 -16.984451530838726 0 0 0
2282 2 5 0.0 -14.005731787566434 -4.488256746095013 -17.560201089219138 0 0 0
2429 2 5 0.0 -14.343651041232501 -6.297512174274667 -14.827440059583655 0 0 0
2277 2 5 0.0 -16.96711918824522 -4.614377684000503 -14.133835899765407 0 0 0
2425 2 5 0.0 -11.784157954369261 -9.341184649936688 -12.63711972826554 0 0 0
2431 2 5 0.0 -8.72190635094864 -9.211262918983959 -16.133355292646147 0 0 0
2436 2 5 0.0 -11.595233618857662 -7.731182646607464 -15.433781843185566 0 0 0
2504 2 5 0.0 -11.616280641808128 -4.51086453202945 -15.467445821140803 0 0 0
2437 2 5 0.0 -11.254106972451124 -6.269463272958374 -18.34829453088023 0 0 0
2497 2 5 0.0 -8.697035279264067 -6.039568183999542 -16.263598926009628 0 0 0
2498 2 5 0.0 -9.10112259239235 -7.71341839030829 -13.298008315507369 0 0 0
2499 2 5 0.0 -9.068021501184377 -4.514223241196688 -13.376494945323804 0 0 0
2485 2 5 0.0 -11.804548995453144 -6.094576407539226 -12.636206123649744 0 0 0
2494 2 5 0.0 -6.320373760055728 -6.080433706970574 -14.089164348485882 0 0 0
2788 2 5 0.0 -6.395751208405098 -9.342070144262953 -14.09018232501015 0 0 0
2797 2 5 0.0 -3.2106649783870833 -9.370675378284536 -17.567095572048583 0 0 0
2794 2 5 0.0 -0.7572463228768439 -9.13971642916726 -15.398899878493374 0 0 0
2495 2 5 0.0 -5.880967165044204 -7.633358333613945 -16.87175658095201 0 0 0
2496 2 5 0.0 -6.097647516008083 -4.4203287385345815 -17.06787044207542 0 0 0
2787 2 5 0.0 -3.478384086068667 -7.714416608405767 -14.79200789529995 0 0 0
2796 2 5 0.0 -0.3945060658546925 -7.722441881623145 -18.132874751353654 0 0 0
2491 2 5 0.0 -3.6173255494879 -4.373944835699006 -14.980300575389752 0 0 0
2505 2 5 0.0 -0.5493912625116942 -4.2789311353154025 -18.243358688070273 0 0 0
2507 2 5 0.0 -3.296513373889308 -5.962349152533439 -17.663880688720422 0 0 0
2793 2 5 0.0 -0.9613756736067299 -5.930413762778826 -15.384183385076923 0 0 0
2833 2 5 0.0 -1.196623002412153 -4.274365334133393 -12.69280495210597 0 0 0
2782 2 5 0.0 -1.0645522637137368 -7.482791929275774 -12.503982681506601 0 0 0
2273 2 5 0.0 -19.750258638616867 -3.0825208479018467 -13.470479157433353 0 0 0
2278 2 5 0.0 -16.936979954758325 -2.9786093356902943 -16.68929928692689 0 0 0
2301 2 5 0.0 -14.317307827182562 -2.967235382304765 -14.823487993237963 0 0 0
2312 2 5 0.0 -14.023089844898994 -1.3326170247701057 -17.535732580110285 0 0 0
2304 2 5 0.0 -14.418632899847834 0.40137048890706606 -14.923277802688395 0 0 0
2305 2 5 0.0 -17.092709469052558 -1.322479443363153 -13.977180187562432 0 0 0
2489 2 5 0.0 -11.809964504368594 -2.9077422584976533 -12.724934359865896 0 0 0
2308 2 5 0.0 -11.186844953489366 -2.946304471951833 -18.441167494505006 0 0 0
2311 2 5 0.0 -11.497061404303375 0.28148816750134237 -18.688816061155123 0 0 0
2502 2 5 0.0 -8.739734855503889 -2.826523876173628 -16.147467069907684 0 0 0
2310 2 5 0.0 -11.582845493820386 1.9580620576723884 -15.992918585286963 0 0 0
2309 2 5 0.0 -11.619703042427668 -1.3769754858609695 -15.483085076672964 0 0 0
2306 2 5 0.0 -8.753660749905313 0.3681575066921425 -16.53745562134805 0 0 0
2501 2 5 0.0 -9.03992814621618 -1.1829931667612674 -13.429342563734215 0 0 0
2331 2 5 0.0 -9.103398091902333 1.9558190197185055 -13.484461889509802 0 0 0
2300 2 5 0.0 -11.886397593005086 0.46252177171787395 -12.836299419087856 0 0 0
2551 2 5 0.0 -6.381663901955202 0.4099030379827481 -14.370633334774158 0 0 0
2492 2 5 0.0 -6.224875248350189 -2.869640004502934 -14.3849603587974 0 0 0
2330 2 5 0.0 -6.0820036097752705 2.297702627289003 -17.131532984472475 0 0 0
2500 2 5 0.0 -6.071428302171123 -1.1258865474858402 -17.05106230640895 0 0 0
2506 2 5 0.0 -3.4526355535605306 -2.620432025384205 -17.804787104707994 0 0 0
2553 2 5 0.0 -1.0039762056608044 -2.6945702820887476 -15.481955557166609 0 0 0
2554 2 5 0.0 -0.5367707611509224 -1.0722985564583538 -18.382084904037335 0 0 0
2547 2 5 0.0 -3.593896322404717 -1.1751719451337295 -14.75877908067825 0 0 0
2549 2 5 0.0 -3.7481733236360926 1.938147557289116 -14.935572486886372 0 0 0
2552 2 5 0.0 -0.9071214705955011 0.5933294989959305 -15.506812856258593 0 0 0
2555 2 5 0.0 -3.3305662271972576 0.6233318121056145 -17.64161318744292 0 0 0
2607 2 5 0.0 -1.361672939659779 2.203009252485276 -12.824890420901788 0 0 0
2543 2 5 0.0 -1.2324309807509222 -1.066701218429373 -12.691731045474775 0 0 0
2333 2 5 0.0 -8.904300227925384 3.53773267668794 -16.43814367734462 0 0 0
2332 2 5 0.0 -9.219625438393232 5.23346783221015 -13.77856307601001 0 0 0
2328 2 5 0.0 -12.007086403397759 3.7023017092892996 -13.367425996056971 0 0 0
2329 2 5 0.0 -6.487354139934692 3.7829068854564585 -14.237530332844841 0 0 0
2618 2 5 0.0 -1.1374914401017058 3.698409271940044 -15.705499280117042 0 0 0
2352 2 5 0.0 -3.8161693391127436 5.558997733469317 -14.924515785496423 0 0 0
2610 2 5 0.0 -1.3781009572586527 5.593990833101377 -12.932139886147196 0 0 0
3408 2 5 0.0 -14.41893257503054 -28.786550056063398 -8.931551138496028 0 0 0
3406 2 5 0.0 -14.714281445708863 -30.54544818901357 -6.296756742905035 0 0 0
3713 2 5 0.0 -9.243309983329196 -33.59672591344508 -7.265412387309805 0 0 0
3411 2 5 0.0 -11.676158544890162 -30.268876922431392 -9.645521392865298 0 0 0
3715 2 5 0.0 -9.115062836978067 -32.22543137178704 -10.19893976875148 0 0 0
3410 2 5 0.0 -9.036087633004632 -28.838812161025338 -10.39376245431963 0 0 0
3714 2 5 0.0 -9.17893043028478 -30.32140528658423 -7.559211580030127 0 0 0
3404 2 5 0.0 -12.010205676665914 -28.65868374199834 -6.801429308810098 0 0 0
3709 2 5 0.0 -11.898440137152363 -31.931365318344408 -6.817840140656405 0 0 0
3762 2 5 0.0 -6.507953583989642 -28.718971564830408 -8.16280435649677 0 0 0
3711 2 5 0.0 -6.6472980871948755 -31.912022256178727 -8.130252394677447 0 0 0
3719 2 5 0.0 -6.431820633823344 -30.322767075786835 -11.033600380744735 0 0 0
3770 2 5 0.0 -0.9178933236718304 -30.230472912693507 -12.266320330249977 0 0 0
3717 2 5 0.0 -4.078630743907946 -33.612605739031096 -8.597236740843258 0 0 0
3716 2 5 0.0 -3.2373227200461008 -32.062560562021204 -11.444304651050519 0 0 0
3769 2 5 0.0 -0.8214080341101908 -31.905809857651672 -9.394622145699344 0 0 0
3771 2 5 0.0 -3.857063374540006 -30.335043895937428 -8.877176152930883 0 0 0
3775 2 5 0.0 -3.687026100583644 -28.65249512892127 -11.571774531872887 0 0 0
3766 2 5 0.0 -1.1919845874554396 -28.756819585095382 -9.540210611841271 0 0 0
3767 2 5 0.0 -1.2929173703035008 -30.267410500226475 -6.582926000218272 0 0 0
4128 2 5 0.0 -1.4217202477286968 -33.56027566612769 -6.534218320675372 0 0 0
2957 2 5 0.0 -19.902329964573184 -24.14927749707911 -10.329412270911149 0 0 0
2655 2 5 0.0 -22.853167309441357 -22.642444972956213 -9.851048816785271 0 0 0
2954 2 5 0.0 -19.98425108093537 -22.471754654228164 -7.703151340592277 0 0 0
2956 2 5 0.0 -20.150123347919738 -25.811825146773202 -7.56267200332159 0 0 0
2948 2 5 0.0 -22.826748595768077 -24.036654630249352 -6.922801043848108 0 0 0
2959 2 5 0.0 -14.495138773434945 -27.351318364524225 -11.801060739942823 0 0 0
2951 2 5 0.0 -17.195557912780046 -27.40773163438972 -8.180137487502638 0 0 0
2955 2 5 0.0 -17.14789691083438 -25.752644592425337 -10.962130825984257 0 0 0
2949 2 5 0.0 -14.512654549597475 -25.58508789553396 -8.9208171488297 0 0 0
2961 2 5 0.0 -14.153585752805862 -23.99645417769499 -11.631819737166056 0 0 0
2952 2 5 0.0 -17.026447034298943 -22.552008098646482 -10.980314467086606 0 0 0
3005 2 5 0.0 -14.519721946426985 -22.400102480391762 -8.862281143418327 0 0 0
2953 2 5 0.0 -17.292847316889087 -24.220677652692032 -8.133579326715036 0 0 0
2958 2 5 0.0 -11.590121097517637 -25.503676300839704 -12.484000536605361 0 0 0
3015 2 5 0.0 -11.458618275581403 -22.32099857645769 -12.44552607293611 0 0 0
3412 2 5 0.0 -11.79932983863479 -27.07757871387418 -9.74480558047837 0 0 0
3444 2 5 0.0 -9.29559733326265 -27.221665108149192 -7.554930830668339 0 0 0
3010 2 5 0.0 -11.701820019143042 -23.833856246982062 -9.610369235676425 0 0 0
3447 2 5 0.0 -9.053277480543459 -25.38781956034003 -10.224200059891979 0 0 0
3446 2 5 0.0 -9.257561508283334 -23.760638931083324 -7.4864311347895605 0 0 0
3440 2 5 0.0 -12.047310633732648 -25.421622928450823 -6.844294048155931 0 0 0
3442 2 5 0.0 -6.657571278593624 -25.501248538112513 -8.124997702341359 0 0 0
3008 2 5 0.0 -9.049877842517208 -22.16384540528314 -10.31509292722738 0 0 0
2995 2 5 0.0 -12.12073552934513 -22.19866209339315 -6.823641645450434 0 0 0
3445 2 5 0.0 -6.553157597708514 -22.15597687451987 -8.170870703203915 0 0 0
3455 2 5 0.0 -6.299137263763707 -23.8069265043629 -10.964310777054187 0 0 0
3452 2 5 0.0 -6.422128481305846 -27.088208648093218 -10.854505451129874 0 0 0
3773 2 5 0.0 -0.8915043629207905 -27.041307111707535 -12.309117079870903 0 0 0
3448 2 5 0.0 -0.9340927992338338 -23.76258221193906 -12.175146091939965 0 0 0
3774 2 5 0.0 -3.898367122082721 -26.92894074418997 -8.85745926770635 0 0 0
3449 2 5 0.0 -3.5948998109242103 -25.435554790435464 -11.582368546000096 0 0 0
3772 2 5 0.0 -1.115985508138392 -25.31601840964858 -9.333557077608102 0 0 0
3450 2 5 0.0 -3.8551105484596637 -23.69894368835997 -8.710004286381073 0 0 0
3824 2 5 0.0 -1.4297184805725203 -23.643169708668925 -6.672922737585543 0 0 0
3768 2 5 0.0 -1.4892801951259003 -26.977782414387686 -6.571036267384529 0 0 0
3453 2 5 0.0 -3.5605683865735607 -22.162368768249443 -11.615168107035187 0 0 0
3488 2 5 0.0 -1.141195659672066 -22.081341402657504 -9.539801979933705 0 0 0
2355 2 5 0.0 -25.32049388971655 -17.88734492545122 -9.299544710391125 0 0 0
2650 2 5 0.0 -25.69183905986899 -19.252897097868008 -6.4823341174136875 0 0 0
2367 2 5 0.0 -25.79850865175204 -16.12847692742873 -6.45618045673843 0 0 0
2649 2 5 0.0 -22.842916855857634 -20.975402678704427 -7.131969687107926 0 0 0
2652 2 5 0.0 -19.794825339853524 -20.959806730726424 -10.559766881277147 0 0 0
2653 2 5 0.0 -22.555309260122055 -19.40296174766849 -9.978038399750984 0 0 0
2688 2 5 0.0 -19.803002484486047 -17.65594980619184 -10.512856923312846 0 0 0
2687 2 5 0.0 -20.140726545036397 -19.203915547720605 -7.5956779941665475 0 0 0
2678 2 5 0.0 -22.85352238885751 -17.67701508912575 -6.9675557821339416 0 0 0
2679 2 5 0.0 -22.38342931578763 -16.21842681555239 -9.667805596471531 0 0 0
2685 2 5 0.0 -20.098704040803394 -15.983000014884885 -7.763745997724443 0 0 0
3007 2 5 0.0 -17.42209033755328 -20.821679228494013 -8.365567939538716 0 0 0
3016 2 5 0.0 -14.30104521017747 -20.869368146201307 -11.714787348203943 0 0 0
2686 2 5 0.0 -17.008692739238093 -19.238053374778353 -11.055993032808532 0 0 0
3000 2 5 0.0 -14.671765059832177 -19.249927574046367 -9.049467664836746 0 0 0
2692 2 5 0.0 -14.29667566721185 -17.683619596959183 -11.956825210638387 0 0 0
2683 2 5 0.0 -17.25384751885076 -17.51437742145454 -8.33503618120379 0 0 0
2681 2 5 0.0 -17.233811638317004 -15.922839914664465 -11.093932032700472 0 0 0
2680 2 5 0.0 -14.608551682225952 -15.928154245014333 -8.98548454071408 0 0 0
3003 2 5 0.0 -14.851012569403263 -17.500913259111357 -6.264449996829389 0 0 0
2690 2 5 0.0 -11.691861141277089 -15.86882163010921 -12.481458858137625 0 0 0
2999 2 5 0.0 -12.17950439240235 -18.939342033140655 -6.789476929699155 0 0 0
3013 2 5 0.0 -11.759915539275587 -20.688915471981673 -9.663215626725634 0 0 0
3009 2 5 0.0 -9.390928476401697 -20.519342039187308 -7.463100208202882 0 0 0
3014 2 5 0.0 -12.005656369331385 -17.583569968397597 -9.68664170119502 0 0 0
3011 2 5 0.0 -9.16934529565157 -18.953991764328695 -10.361073615545775 0 0 0
3075 2 5 0.0 -9.386652587890259 -17.187426076382195 -7.627428793220112 0 0 0
3071 2 5 0.0 -6.65271254900878 -19.000981090084604 -8.29482571079615 0 0 0
3084 2 5 0.0 -6.421483306335239 -17.34737621951103 -10.943614836722722 0 0 0
3019 2 5 0.0 -6.225532341172742 -20.570329277594844 -11.039179054226462 0 0 0
3077 2 5 0.0 -0.8444209544061256 -17.146079945888946 -12.324886590858897 0 0 0
3491 2 5 0.0 -0.9162141721645402 -20.499537977768185 -12.237914702523371 0 0 0
3492 2 5 0.0 -3.751428345328032 -20.57600469906889 -8.929432341421272 0 0 0
3078 2 5 0.0 -3.5815830592142155 -18.91941492399082 -11.548972355669697 0 0 0
3079 2 5 0.0 -4.046238888745372 -17.22315853015744 -8.917852824381029 0 0 0
3490 2 5 0.0 -1.162929911038223 -18.738740114302367 -9.519786775361478 0 0 0
3546 2 5 0.0 -1.6909941560659847 -17.077628298850712 -6.757196428272204 0 0 0
3489 2 5 0.0 -1.4037804809175427 -20.31472460349987 -6.808641369523572 0 0 0
2370 2 5 0.0 -25.333750668889053 -11.019357458491589 -9.43671989681753 0 0 0
2366 2 5 0.0 -25.58935797853193 -12.79260735817838 -6.759107850049385 0 0 0
2368 2 5 0.0 -25.230130003246945 -14.575484315405923 -9.366616581091325 0 0 0
2369 2 5 0.0 -25.61512141497105 -9.601937324325881 -6.560345844552929 0 0 0
2374 2 5 0.0 -19.840369054238455 -14.229194040970864 -10.514315972853307 0 0 0
2376 2 5 0.0 -22.57567492616934 -12.751051415760838 -9.861532754450339 0 0 0
2375 2 5 0.0 -19.80306979936696 -11.141980475027031 -10.662071478597664 0 0 0
2373 2 5 0.0 -20.203888048837626 -12.721512878292527 -7.865770512768473 0 0 0
2365 2 5 0.0 -22.88925275760048 -11.11756119774593 -7.1015941970741645 0 0 0
2364 2 5 0.0 -22.823217554497635 -14.3499702826643 -7.111457683733431 0 0 0
2414 2 5 0.0 -22.39783605820899 -9.585329989787871 -9.937924913417975 0 0 0
2684 2 5 0.0 -17.373497588730224 -14.32888781449598 -8.477126676993759 0 0 0
2693 2 5 0.0 -14.41575722774535 -14.209094877367155 -11.827591211836973 0 0 0
2371 2 5 0.0 -17.077810671474648 -12.561814653948058 -11.282258445964644 0 0 0
2427 2 5 0.0 -14.444960007438391 -10.903630642419984 -11.951893866699706 0 0 0
2724 2 5 0.0 -14.709026176496652 -12.611828344016208 -9.088216893847065 0 0 0
2418 2 5 0.0 -17.535478171049796 -11.103300242557317 -8.49841643167931 0 0 0
2726 2 5 0.0 -15.000331814841852 -14.193046070405103 -6.255906907068761 0 0 0
2727 2 5 0.0 -15.01659730171432 -10.955805914842934 -6.348641518957325 0 0 0
2415 2 5 0.0 -14.723676324542273 -9.447422716510838 -9.1978135503626 0 0 0
3074 2 5 0.0 -9.273828526931984 -15.711968176115402 -10.395264497903025 0 0 0
3066 2 5 0.0 -12.207720077595486 -15.678927820485132 -6.982801403491811 0 0 0
3073 2 5 0.0 -6.71053108110967 -15.577630596743742 -8.239377005834124 0 0 0
2723 2 5 0.0 -12.216998196964973 -12.306218241918643 -7.056897447982064 0 0 0
2731 2 5 0.0 -11.978090812113859 -14.238255620973872 -9.727012421209505 0 0 0
3076 2 5 0.0 -9.527818732921272 -13.91874328379428 -7.671118023703349 0 0 0
2732 2 5 0.0 -11.919620379400135 -10.936212610363889 -9.876102608447898 0 0 0
2729 2 5 0.0 -9.351339734656461 -12.503945936799106 -10.560436580702955 0 0 0
2780 2 5 0.0 -9.471124975139908 -10.785629155630392 -7.715398828531282 0 0 0
3150 2 5 0.0 -6.879699487061392 -12.489073337718262 -8.446843356144225 0 0 0
2789 2 5 0.0 -6.674617088888765 -10.82855167336803 -11.230888021199098 0 0 0
3085 2 5 0.0 -6.362137890500985 -14.253713460231474 -11.14278571592001 0 0 0
3080 2 5 0.0 -3.708573698932688 -15.61642350061125 -11.837712759367372 0 0 0
3155 2 5 0.0 -1.3408086817640785 -15.436903828469175 -9.705214408613067 0 0 0
3164 2 5 0.0 -3.968553347215898 -13.940245496187828 -9.01318110734603 0 0 0
3160 2 5 0.0 -1.2353078832519393 -12.253180377834134 -9.640705300740512 0 0 0
3163 2 5 0.0 -3.8197093428230167 -12.505181690786005 -11.950319847240594 0 0 0
3165 2 5 0.0 -4.183834224837264 -10.857403397142695 -9.129727998441922 0 0 0
3159 2 5 0.0 -1.6834120557099204 -10.745565774318477 -6.8684624245662835 0 0 0
3156 2 5 0.0 -1.5242445276700833 -13.87145270445513 -6.964117653715817 0 0 0
3149 2 5 0.0 -4.2801168167613275 -12.379748334048655 -6.299872226335448 0 0 0
2262 2 5 0.0 -25.339670662934555 -7.781186166743412 -9.356068010810516 0 0 0
2269 2 5 0.0 -25.674997576358518 -6.464619919530218 -6.446879099311621 0 0 0
2420 2 5 0.0 -20.178251774496715 -9.409671227424736 -7.706071842380936 0 0 0
2423 2 5 0.0 -19.794948840103075 -7.976803543024135 -10.69380752811793 0 0 0
2272 2 5 0.0 -22.52115692461543 -6.362322109779519 -10.037901286705075 0 0 0
2271 2 5 0.0 -19.88536948972776 -4.658682455791358 -10.695959629200155 0 0 0
2422 2 5 0.0 -20.21290566661579 -6.233171537852354 -7.843630794220761 0 0 0
2268 2 5 0.0 -23.170549846368658 -4.640012759831959 -7.145981166450332 0 0 0
2413 2 5 0.0 -22.93790860872327 -7.866540787016174 -7.173183680526868 0 0 0
2416 2 5 0.0 -17.17115216745577 -9.39712014053821 -11.170538014389058 0 0 0
2428 2 5 0.0 -14.579656388445278 -7.768773299926424 -11.976514547282312 0 0 0
2419 2 5 0.0 -17.58352655418894 -7.793592805307169 -8.471874884139464 0 0 0
2421 2 5 0.0 -17.233208301126226 -6.253497885641401 -11.23091651511854 0 0 0
2473 2 5 0.0 -14.784166518785739 -6.1190370144919575 -9.221011047500298 0 0 0
2490 2 5 0.0 -14.552241232548583 -4.5765674861161125 -12.062908040471589 0 0 0
2481 2 5 0.0 -17.514584298575095 -4.571133331614418 -8.522031916291896 0 0 0