LAMMPS data file via write_data, version 21 Jul 2020, timestep = 24500000

21305 atoms
5 atom types
2251 bonds
5 bond types
4500 angles
9 angle types
6741 dihedrals
13 dihedral types

-500.0 500.0 xlo xhi
-500.0 500.0 ylo yhi
-500.0 500.0 zlo zhi

Masses

1 12.01115
2 1.00797
3 12.01115
4 32.064
5 196.967

Atoms # full

2971 2 5 0.0 -8.474621257973052 -24.146340453657796 -19.20201035443588 0 0 0
3033 2 5 0.0 -5.913498910678809 -22.51623162495244 -20.28282958901377 0 0 0
2661 2 5 0.0 -13.919993375597956 -19.236973918853224 -19.019040834974483 0 0 0
2703 2 5 0.0 -13.73232867758457 -15.903883009470254 -19.004216800275024 0 0 0
2709 2 5 0.0 -11.252150471020881 -17.622549683145163 -20.08725374151597 0 0 0
2706 2 5 0.0 -8.620449045506618 -16.069099970726395 -21.628625287261126 0 0 0
3037 2 5 0.0 -8.441785220486393 -20.92013643508636 -18.79642251232036 0 0 0
3038 2 5 0.0 -3.1502362733724074 -20.776563241529278 -21.07392182352751 0 0 0
3035 2 5 0.0 -5.820062491784704 -19.406978439608025 -19.991304610938812 0 0 0
3039 2 5 0.0 -3.2890167294472072 -17.56488497508303 -21.142346002273204 0 0 0
3086 2 5 0.0 -5.895213985957863 -16.16767045650295 -19.82227649052951 0 0 0
3094 2 5 0.0 -0.44147124694455664 -17.888145868254483 -19.385745715784818 0 0 0
3096 2 5 0.0 -0.5732178129045858 -16.009567477434903 -22.103450869423842 0 0 0
3461 2 5 0.0 -0.43607603060744765 -21.094010520267624 -19.483412134243494 0 0 0
2389 2 5 0.0 -13.584758321789852 -12.660078312220802 -18.924161431890045 0 0 0
2708 2 5 0.0 -11.169101947741591 -14.272479482510752 -20.195166618852415 0 0 0
2707 2 5 0.0 -8.331947862580874 -12.899531687690985 -21.315315381291025 0 0 0
2398 2 5 0.0 -11.085124340032761 -10.926156990335226 -20.471845165169643 0 0 0
2710 2 5 0.0 -5.810215771076875 -14.592158108133129 -22.7043525905566 0 0 0
3098 2 5 0.0 -3.218526535353614 -14.40425558123092 -20.837675887551516 0 0 0
2740 2 5 0.0 -5.64943795896073 -13.036718884397883 -19.63713131974819 0 0 0
2744 2 5 0.0 -5.797432849433401 -11.209855350017422 -22.383640177242253 0 0 0
2743 2 5 0.0 -2.9997359912241293 -11.186685223991892 -20.673227393962932 0 0 0
3097 2 5 0.0 -0.4422876287638048 -12.824534767953532 -22.12486110458695 0 0 0
3095 2 5 0.0 -0.5112748585565724 -14.457956544242823 -19.27842309959998 0 0 0
2741 2 5 0.0 -5.549742537277045 -9.702273465344472 -19.55551734404131 0 0 0
3183 2 5 0.0 -0.2624340814085431 -11.238630844970197 -19.05153292787146 0 0 0
2801 2 5 0.0 -0.38847545556195 -9.592242386513707 -21.76695162416282 0 0 0
2390 2 5 0.0 -13.506105896387716 -9.36502978528482 -18.80538600762692 0 0 0
2438 2 5 0.0 -13.48849157394776 -6.153488575888304 -18.824560188121524 0 0 0
2441 2 5 0.0 -8.290167236013417 -9.408010465512223 -21.235992794626686 0 0 0
2443 2 5 0.0 -10.894776054098896 -7.7544025953327 -19.975517963375502 0 0 0
2442 2 5 0.0 -8.231080211350825 -6.275317360868798 -21.033555809455933 0 0 0
2444 2 5 0.0 -10.80505349688822 -4.504433120037814 -19.845610958449424 0 0 0
2803 2 5 0.0 -2.9722528805233637 -7.86175854844019 -20.529958097323792 0 0 0
2445 2 5 0.0 -5.577689779064028 -7.94439210155929 -22.39908946698035 0 0 0
2791 2 5 0.0 -5.459627826582678 -6.267815889281718 -19.335143695898424 0 0 0
2513 2 5 0.0 -2.930196373397982 -4.601998972454376 -20.241359061826042 0 0 0
2802 2 5 0.0 -0.3907111385790055 -6.2036039023120635 -21.564721631988057 0 0 0
2508 2 5 0.0 -5.744558042779932 -3.1690676394677104 -19.131267739174188 0 0 0
2280 2 5 0.0 -13.32142298147612 -2.8443601229507562 -18.81737450389603 0 0 0
2512 2 5 0.0 -3.104094947936208 -1.3568229506297973 -20.064724784450163 0 0 0
2510 2 5 0.0 -5.5780680797630575 0.392641944954694 -19.025020544997243 0 0 0
3718 2 5 0.0 -5.836144532357194 -29.24831507891825 -14.695551210186618 0 0 0
3770 2 5 0.0 -2.9542254139419186 -29.33577733205562 -12.96941667493554 0 0 0
2965 2 5 0.0 -13.48291901339949 -25.932724816192895 -13.8884822524602 0 0 0
2970 2 5 0.0 -16.18191240105085 -22.642272003626168 -15.414575418395586 0 0 0
2969 2 5 0.0 -13.65229141831092 -24.0445094033934 -16.644420704996623 0 0 0
2968 2 5 0.0 -13.409629450635467 -22.62698777055221 -13.735078356125321 0 0 0
2962 2 5 0.0 -16.020808710068327 -24.15628240316398 -12.611120064949954 0 0 0
3414 2 5 0.0 -8.320791923766683 -27.655394290065818 -13.488535800387513 0 0 0
3418 2 5 0.0 -11.172001118802442 -27.615215506868743 -15.190172679768379 0 0 0
3416 2 5 0.0 -8.49218719871903 -26.01106421460434 -16.267136992916058 0 0 0
2964 2 5 0.0 -10.881619442021314 -24.412364478809184 -15.076416531032313 0 0 0
2966 2 5 0.0 -11.15334088085549 -22.561011891745107 -17.906669584938793 0 0 0
3020 2 5 0.0 -8.434513876838718 -22.78336416661811 -16.238000410793568 0 0 0
3456 2 5 0.0 -8.147225370118626 -24.411861470799852 -13.325895239228306 0 0 0
3779 2 5 0.0 -0.28910099451744853 -24.52474118604848 -13.951499710401587 0 0 0
3781 2 5 0.0 -3.1905014516072887 -27.58416582828358 -15.656821228505603 0 0 0
3451 2 5 0.0 -5.811941841627004 -25.95060831190277 -14.554491373169736 0 0 0
3460 2 5 0.0 -5.678754787747054 -24.402539362246532 -17.394496365959252 0 0 0
3457 2 5 0.0 -3.1651002200314786 -24.35827321196947 -15.589907858663857 0 0 0
3454 2 5 0.0 -5.693606030668036 -22.725067092942613 -14.51958011559664 0 0 0
3459 2 5 0.0 -3.04947535106921 -22.700354629536864 -18.412646318519872 0 0 0
3773 2 5 0.0 -2.8538230166419654 -26.072609498083057 -12.772673257194137 0 0 0
3448 2 5 0.0 -2.759828978662279 -22.892827104135257 -12.732725350877034 0 0 0
3780 2 5 0.0 -0.5473799527087357 -25.81983920890167 -16.955256210152804 0 0 0
3493 2 5 0.0 -0.32387140298187095 -22.744804209567306 -16.762943769471057 0 0 0
3778 2 5 0.0 -0.2473900349989712 -27.69722555159168 -14.235990671684249 0 0 0
2660 2 5 0.0 -21.33612453364781 -19.21281535578005 -12.943407892479616 0 0 0
2358 2 5 0.0 -21.39730665687664 -16.02184591884327 -12.88384562682275 0 0 0
2359 2 5 0.0 -18.973221284016628 -15.948128157077905 -16.787980997572188 0 0 0
2657 2 5 0.0 -18.75696416600059 -17.747363346194817 -14.173812526565612 0 0 0
2659 2 5 0.0 -18.724597501768304 -21.05754880323213 -14.319219496818329 0 0 0
2967 2 5 0.0 -13.790007520086322 -20.876891996848073 -16.356470318238937 0 0 0
2662 2 5 0.0 -16.373063361646466 -17.44924461992198 -17.964541829734102 0 0 0
2663 2 5 0.0 -16.182548699754857 -19.162812213442646 -15.307270585548896 0 0 0
2704 2 5 0.0 -16.11089697572211 -15.824139221713795 -15.120609505215663 0 0 0
2702 2 5 0.0 -13.488609183893136 -17.642717198178143 -16.234822274163328 0 0 0
3030 2 5 0.0 -13.274138154565147 -19.50468108868669 -13.596020162878427 0 0 0
2700 2 5 0.0 -13.219317086663281 -16.04934577991066 -13.582921499608675 0 0 0
2960 2 5 0.0 -15.895743771307616 -20.91008111655951 -12.684339894690405 0 0 0
2694 2 5 0.0 -15.854998278900283 -17.672061723392243 -12.50832869699933 0 0 0
3036 2 5 0.0 -8.406905754970653 -17.744727850895504 -18.701865632130865 0 0 0
3018 2 5 0.0 -8.104792103899895 -21.273194652255295 -13.256820633328589 0 0 0
3028 2 5 0.0 -10.809317533153495 -21.177618559530355 -14.912842344530851 0 0 0
3023 2 5 0.0 -8.261845504320162 -19.37441664585832 -15.9429129582631 0 0 0
3029 2 5 0.0 -10.925190504588038 -19.44993957175133 -17.482988452960043 0 0 0
2697 2 5 0.0 -10.920215457784652 -16.10099994057192 -17.468455840012922 0 0 0
3024 2 5 0.0 -8.092946931150982 -16.28262984888654 -15.776940324808159 0 0 0
3025 2 5 0.0 -10.705281661725484 -17.852841120507065 -14.65682959672998 0 0 0
3022 2 5 0.0 -7.909432252642375 -18.072448288476 -13.119178208337885 0 0 0
3458 2 5 0.0 -2.918908769350297 -21.137610047449716 -15.533149877203778 0 0 0
3032 2 5 0.0 -5.706858197014824 -21.037840354673186 -17.240699004434354 0 0 0
3017 2 5 0.0 -5.292781838313178 -19.50049896769881 -14.363449269998924 0 0 0
3031 2 5 0.0 -3.0527914870654214 -19.455611804383505 -18.255748800712404 0 0 0
3034 2 5 0.0 -5.638212819101682 -17.759649933097098 -17.14179411382367 0 0 0
3081 2 5 0.0 -5.314374602317098 -16.255130919314762 -14.12714580480303 0 0 0
3088 2 5 0.0 -2.7573236771794196 -17.979642966838046 -15.387304007845849 0 0 0
3090 2 5 0.0 -2.9908531038237944 -16.20004111768554 -18.179013249944855 0 0 0
3497 2 5 0.0 -0.2482260045402095 -19.549209076648573 -16.68691803388457 0 0 0
3087 2 5 0.0 -0.16016138123383444 -16.246679559569916 -16.505099006702423 0 0 0
3491 2 5 0.0 -2.7432279621673836 -19.704083716464666 -12.51966369696053 0 0 0
3495 2 5 0.0 -0.16326084100118932 -21.275292461743494 -13.806249327859765 0 0 0
3496 2 5 0.0 -0.003988049763511766 -18.013442048629283 -13.723498645997298 0 0 0
2386 2 5 0.0 -21.150975711579182 -12.733590775710889 -12.906332107251263 0 0 0
2387 2 5 0.0 -20.998239362081982 -9.484409590266427 -12.72955301404637 0 0 0
2395 2 5 0.0 -18.72148887103466 -12.493853090481212 -16.50911436549458 0 0 0
2689 2 5 0.0 -18.62635257668008 -14.389986925028248 -13.841445569587092 0 0 0
2699 2 5 0.0 -13.433240721156169 -14.37876993412108 -16.319772373412565 0 0 0
2394 2 5 0.0 -16.311074997565882 -14.177229684793062 -17.77009756978957 0 0 0
2391 2 5 0.0 -16.221710928646747 -10.964585650681704 -17.858710950571336 0 0 0
2392 2 5 0.0 -16.038481394016642 -12.688145461547133 -14.95703088345102 0 0 0
2383 2 5 0.0 -18.40393352311719 -11.094286649416006 -13.60764456161723 0 0 0
2388 2 5 0.0 -13.417019127437491 -11.19891959126204 -16.17382410897785 0 0 0
2701 2 5 0.0 -13.261839659559143 -12.921374246369052 -13.44315840898167 0 0 0
2435 2 5 0.0 -13.05088489954448 -9.74443127845877 -13.260306789195772 0 0 0
2393 2 5 0.0 -15.807033314744661 -9.539227845080493 -14.920870249892554 0 0 0
2705 2 5 0.0 -8.294366642347098 -14.522638726366838 -18.56480952993703 0 0 0
2742 2 5 0.0 -8.206327049129143 -11.257655897753683 -18.441251502588266 0 0 0
2696 2 5 0.0 -10.619027735291011 -14.559264077104956 -14.656109444988362 0 0 0
2698 2 5 0.0 -10.847738070646058 -12.827866835539796 -17.447668577994005 0 0 0
2734 2 5 0.0 -8.036466329545949 -12.96849533771277 -15.724269658422562 0 0 0
2735 2 5 0.0 -7.857019809756576 -9.798642741917392 -15.626233275251542 0 0 0
2736 2 5 0.0 -10.541245032725715 -11.270365137963761 -14.537757625605181 0 0 0
3083 2 5 0.0 -7.8495734793252 -14.691407039176767 -12.958796015924982 0 0 0
2733 2 5 0.0 -7.653256830646133 -11.41097117791265 -12.75671405793529 0 0 0
2432 2 5 0.0 -10.670977069441554 -9.686188387383048 -17.327557560001296 0 0 0
3172 2 5 0.0 -0.061358785726622504 -13.048204399982074 -16.402282749064923 0 0 0
3089 2 5 0.0 -2.714769566190181 -14.885939532475787 -15.226538462975876 0 0 0
3092 2 5 0.0 -5.5313504305043635 -14.499017372092492 -16.91044842222326 0 0 0
3082 2 5 0.0 -5.227534482546437 -13.075348388473195 -13.969609037344187 0 0 0
3091 2 5 0.0 -2.8674004265526567 -12.860155179147554 -17.967943397728117 0 0 0
2739 2 5 0.0 -5.402417273960676 -11.419280631812653 -16.79438491397695 0 0 0
2786 2 5 0.0 -5.075448671950686 -9.914704227194356 -13.87387637373547 0 0 0
3174 2 5 0.0 -2.673309686617291 -11.55528185208374 -15.154182638110122 0 0 0
2795 2 5 0.0 -2.8382154399679314 -9.654616612846976 -17.790386735413588 0 0 0
3173 2 5 0.0 -0.10282216968972442 -9.724267739620716 -16.0931323183875 0 0 0
3168 2 5 0.0 -0.0013890423007030625 -14.934767834775084 -13.588607461955371 0 0 0
2397 2 5 0.0 -18.883399907338315 -9.314035630559777 -16.36720108481455 0 0 0
2266 2 5 0.0 -18.64108866536276 -6.116939875077048 -16.35769039131773 0 0 0
2434 2 5 0.0 -13.192165460196504 -7.939119302696122 -15.927018124957858 0 0 0
2424 2 5 0.0 -18.484487175488677 -7.781391321990943 -13.704275479124387 0 0 0
2396 2 5 0.0 -16.041664702397824 -7.667053895366173 -17.53064373991624 0 0 0
2439 2 5 0.0 -15.828335866217262 -6.344709208333822 -14.77067543708693 0 0 0
2281 2 5 0.0 -16.131242943648413 -4.418246795101152 -17.715110328584224 0 0 0
2276 2 5 0.0 -18.370988808285425 -4.503825456014531 -13.55681916013179 0 0 0
2437 2 5 0.0 -13.307959483202222 -4.824847922453799 -15.892297489410776 0 0 0
2436 2 5 0.0 -13.094990691333324 -6.440393212242874 -13.177712363045874 0 0 0
2504 2 5 0.0 -12.987548389113877 -3.2700884182837413 -12.969256119341345 0 0 0
2440 2 5 0.0 -8.089067778490815 -8.099398568413514 -18.351882656423523 0 0 0
2431 2 5 0.0 -10.423801309696797 -8.127672011123044 -14.31268739764727 0 0 0
2509 2 5 0.0 -8.209169203148939 -4.685893335410267 -18.21157226299601 0 0 0
2495 2 5 0.0 -7.911400572210233 -6.378610646654006 -15.521419214004508 0 0 0
2433 2 5 0.0 -10.676790336639232 -6.336504480359894 -17.140838881270202 0 0 0
2497 2 5 0.0 -10.547440856641144 -4.901494905112289 -14.168008499562454 0 0 0
2788 2 5 0.0 -7.756489295505103 -8.230422731314908 -12.6364457309954 0 0 0
2494 2 5 0.0 -7.620973433832037 -4.943012282844325 -12.65612555764891 0 0 0
2800 2 5 0.0 -0.22563635685815334 -8.06549339074067 -18.743610492808386 0 0 0
2799 2 5 0.0 -0.2541956561846894 -4.771136126710643 -18.621334240964483 0 0 0
2794 2 5 0.0 -2.5391186745034813 -8.287030608407116 -14.948495300627256 0 0 0
2797 2 5 0.0 -5.462364657688783 -8.005303064013653 -16.693188218668364 0 0 0
2796 2 5 0.0 -2.8663905736516826 -6.4049514809613415 -17.581587213456036 0 0 0
2787 2 5 0.0 -5.20163862236127 -6.614010144697844 -13.820147486105075 0 0 0
2507 2 5 0.0 -5.325644675931547 -4.6770812095274605 -16.406728739846056 0 0 0
2793 2 5 0.0 -2.4474702237196593 -4.848285317947875 -14.707144143769655 0 0 0
2491 2 5 0.0 -4.946315926748 -3.2976674516083238 -13.439706327790226 0 0 0
2282 2 5 0.0 -15.764315664624931 -3.1147234083702875 -14.786581924665175 0 0 0
2278 2 5 0.0 -18.423832887512336 -1.2322292048884003 -13.406728655155147 0 0 0
2312 2 5 0.0 -15.674742316474632 0.27976878625936036 -14.53190882151094 0 0 0
2308 2 5 0.0 -13.192357741547502 -1.7135917393815043 -15.703543112186235 0 0 0
2311 2 5 0.0 -13.120885771305888 1.7154518921439257 -15.728182423318112 0 0 0
2309 2 5 0.0 -12.938596078518588 0.1064087133145941 -12.697944457360235 0 0 0
2503 2 5 0.0 -10.64642127723099 -3.1259114787102305 -16.86675517973904 0 0 0
2496 2 5 0.0 -7.865249928966524 -3.067024749397308 -15.311853405284888 0 0 0
2511 2 5 0.0 -8.055596902630224 -1.439534661816679 -18.01859428187091 0 0 0
2313 2 5 0.0 -8.330124900208663 1.7249738102533891 -17.95446979860689 0 0 0
2502 2 5 0.0 -10.356158729875983 -1.5854400411577398 -14.033396102332324 0 0 0
2307 2 5 0.0 -10.722316883388823 0.03812121393261385 -16.842405517355978 0 0 0
2500 2 5 0.0 -7.834817015942168 0.14220874641486844 -15.11864981324099 0 0 0
2306 2 5 0.0 -10.302239056550663 1.754426017065518 -14.018681135506453 0 0 0
2505 2 5 0.0 -2.69020047488198 -3.118557756428001 -17.380718396699937 0 0 0
2553 2 5 0.0 -2.4056885051576486 -1.6791775118103784 -14.598528963005968 0 0 0
2506 2 5 0.0 -5.089193134756133 -1.4428512502733168 -16.25896681234853 0 0 0
2554 2 5 0.0 -2.6505993272602697 0.1443829439977872 -17.359250571294186 0 0 0
2547 2 5 0.0 -4.90166687299977 -0.0014903680208483143 -13.299747207837166 0 0 0
2552 2 5 0.0 -2.369070218276131 1.6677459555763356 -14.430306335287199 0 0 0
2555 2 5 0.0 -5.1190885755182975 1.7328954087655146 -16.08611166158422 0 0 0
2556 2 5 0.0 -0.14326244506243788 -1.519884881965372 -18.52207261543732 0 0 0
2310 2 5 0.0 -12.808572222618142 3.2493799122160434 -12.87544594901731 0 0 0
2330 2 5 0.0 -7.700906792253415 3.4836757810900147 -14.881710681280635 0 0 0
2333 2 5 0.0 -10.361231773046207 5.295517115842872 -13.708645316889049 0 0 0
2549 2 5 0.0 -4.845975379260408 3.239328394689099 -13.12145920190931 0 0 0
2618 2 5 0.0 -2.4999661792150314 4.961488150343158 -14.205579880678522 0 0 0
2352 2 5 0.0 -5.087433318411208 6.5938603824071835 -13.170490392882366 0 0 0
3411 2 5 0.0 -13.200111934900423 -29.48738998488549 -8.584460457057636 0 0 0
3415 2 5 0.0 -10.823591992519166 -29.390105041571154 -12.332876343328717 0 0 0
3715 2 5 0.0 -10.69557473795235 -31.308453755079874 -9.628935883252394 0 0 0
3711 2 5 0.0 -7.812196808841646 -31.147774785458665 -8.039278459680522 0 0 0
3719 2 5 0.0 -7.98899627792757 -29.40022615340544 -10.666895301798954 0 0 0
3713 2 5 0.0 -10.388747285558463 -32.869184887608526 -6.89812883340719 0 0 0
3714 2 5 0.0 -10.391709489450589 -29.545664790835083 -6.848344895867276 0 0 0
3764 2 5 0.0 -0.019457095106292233 -29.4958929888753 -11.30731463079919 0 0 0
4128 2 5 0.0 -2.7167113565230427 -33.01265311013072 -7.312430618852177 0 0 0
3717 2 5 0.0 -5.439769124631095 -32.74765638222001 -9.17341709362106 0 0 0
3769 2 5 0.0 -2.7089854797428248 -31.17882436908248 -10.188532512700064 0 0 0
3716 2 5 0.0 -5.596842871149702 -30.96990374293266 -11.954653260051149 0 0 0
3771 2 5 0.0 -5.260523130608978 -29.510331190529623 -9.036166773608592 0 0 0
3767 2 5 0.0 -2.576975014767092 -29.647805012730213 -7.418596769039836 0 0 0
3758 2 5 0.0 -5.0964054722494225 -31.191835810407365 -6.263003547175475 0 0 0
4125 2 5 0.0 -0.10048125082556944 -31.29255490793877 -8.534237803628717 0 0 0
2957 2 5 0.0 -20.915033050523007 -22.855172046018055 -7.523612482700635 0 0 0
2963 2 5 0.0 -18.53311267743648 -22.47813002143041 -11.583608435420507 0 0 0
3408 2 5 0.0 -15.683192756779045 -27.80532623035421 -7.443479991280061 0 0 0
3413 2 5 0.0 -13.453590192511767 -27.586200579260314 -11.06485373734221 0 0 0
2959 2 5 0.0 -16.06726199818583 -26.09790987955717 -10.090233000197946 0 0 0
2955 2 5 0.0 -18.616869975648495 -24.431126006481637 -8.964747488440743 0 0 0
2949 2 5 0.0 -15.627041472297016 -24.562926899221257 -7.125609068941282 0 0 0
2961 2 5 0.0 -15.784295140999912 -22.708012412504278 -9.808605637786595 0 0 0
2958 2 5 0.0 -13.194285080808552 -24.292084002718376 -11.050851339770425 0 0 0
3412 2 5 0.0 -13.063823041541704 -26.097187036627613 -8.241575400518533 0 0 0
3010 2 5 0.0 -13.020051673253068 -22.877741336606206 -8.200428516991789 0 0 0
2951 2 5 0.0 -18.21084969716026 -26.221255149380944 -6.297805526419353 0 0 0
3417 2 5 0.0 -10.83875674538911 -26.05991538029882 -12.260813655089374 0 0 0
3762 2 5 0.0 -7.748290391048421 -27.919894313019935 -7.843990432029784 0 0 0
3410 2 5 0.0 -10.693016046537359 -27.756657317543844 -9.522217623782549 0 0 0
3452 2 5 0.0 -7.992079898128319 -26.173049223828045 -10.647271735202867 0 0 0
3442 2 5 0.0 -7.747688280933007 -24.624617167900514 -7.772932846044018 0 0 0
3447 2 5 0.0 -10.498999594615473 -24.47655595658358 -9.40581083529997 0 0 0
3021 2 5 0.0 -10.625659909437855 -22.863280412734273 -12.177910736368096 0 0 0
3455 2 5 0.0 -7.972240653673508 -22.85847686990373 -10.478205578548893 0 0 0
3444 2 5 0.0 -10.344368570817528 -26.124843779803168 -6.579665302448942 0 0 0
3446 2 5 0.0 -10.320057118130736 -22.988243009898664 -6.5226186775464265 0 0 0
3766 2 5 0.0 -2.7573227402377882 -27.823824830064616 -10.15067126770924 0 0 0
3775 2 5 0.0 -5.453363038946528 -27.639920896899735 -11.89279023896791 0 0 0
3768 2 5 0.0 -2.4354437925185164 -26.466858526682675 -7.1946615938408245 0 0 0
3774 2 5 0.0 -5.175625391977482 -26.199458769187217 -9.035941807920779 0 0 0
3449 2 5 0.0 -5.481714677525603 -24.320488400431007 -11.702674033678639 0 0 0
3772 2 5 0.0 -2.737731724817394 -24.504599937285523 -9.827718522992734 0 0 0
3450 2 5 0.0 -5.185254858303652 -22.796783452323403 -8.836025943005332 0 0 0
3824 2 5 0.0 -2.387787071313771 -23.100848444009674 -7.056221538770808 0 0 0
3765 2 5 0.0 -0.15193871077106605 -26.26289922328901 -11.11139630911235 0 0 0
3763 2 5 0.0 -0.043666709277639965 -27.973263785721137 -8.494792733358938 0 0 0
3823 2 5 0.0 -0.013268889793175904 -22.916536121604736 -10.96247870789465 0 0 0
2654 2 5 0.0 -21.233349379230667 -21.23439041512291 -10.533076193624224 0 0 0
2656 2 5 0.0 -23.796807870306264 -19.57796596274863 -9.27271873865237 0 0 0
2652 2 5 0.0 -20.94673448416466 -19.578257901746937 -7.588692865736274 0 0 0
2357 2 5 0.0 -23.85985958057244 -15.99742363461407 -8.901330395906605 0 0 0
2651 2 5 0.0 -21.205516159999352 -17.702050645117954 -10.122580643438477 0 0 0
2688 2 5 0.0 -20.857435050775685 -16.254549576431163 -7.318675955685064 0 0 0
2655 2 5 0.0 -23.426061329693926 -21.149274022520725 -6.502623143696344 0 0 0
2653 2 5 0.0 -23.361490036075413 -18.046008044929348 -6.36332335451217 0 0 0
3005 2 5 0.0 -15.528584592396193 -21.15837770052223 -7.119738898901073 0 0 0
2952 2 5 0.0 -18.464677084863244 -21.163466326776955 -8.697662989600207 0 0 0
2658 2 5 0.0 -18.541454773641263 -19.350387121579004 -11.331776639862124 0 0 0
3016 2 5 0.0 -15.771855408108957 -19.523784521967393 -9.837094093277882 0 0 0
2695 2 5 0.0 -18.530327664378333 -16.11482803747751 -11.29672366464131 0 0 0
2686 2 5 0.0 -18.386527586955957 -17.752325179371994 -8.500371246763745 0 0 0
2692 2 5 0.0 -15.714742293117547 -16.122288424205042 -9.722396533725131 0 0 0
3000 2 5 0.0 -15.39697516982336 -17.86153033765376 -6.854443311570721 0 0 0
3012 2 5 0.0 -13.14961102822657 -17.82386503653618 -10.806895703559938 0 0 0
3015 2 5 0.0 -13.136347743950942 -21.158188991985032 -10.992863421309751 0 0 0
3013 2 5 0.0 -12.904985304305363 -19.547854931952738 -8.042968910430107 0 0 0
3014 2 5 0.0 -12.760585195070826 -16.35082756447461 -7.952953724059976 0 0 0
3445 2 5 0.0 -7.684360167762253 -21.32347558574563 -7.58965723827554 0 0 0
3008 2 5 0.0 -10.59333801119794 -21.21512903128864 -9.265285171048284 0 0 0
3019 2 5 0.0 -7.852290568009037 -19.71516348044083 -10.354703554966456 0 0 0
3026 2 5 0.0 -10.582042855092576 -19.479850761039618 -11.955254901172607 0 0 0
3011 2 5 0.0 -10.341541098035893 -18.03508718752069 -9.098908621367977 0 0 0
3027 2 5 0.0 -10.47070171468161 -16.262970346663003 -11.909524377836506 0 0 0
3071 2 5 0.0 -7.629329558762661 -18.24872098419284 -7.602860192405201 0 0 0
3084 2 5 0.0 -7.846424466299702 -16.46779794830997 -10.298350946998724 0 0 0
3009 2 5 0.0 -10.19967230337984 -19.67784833789327 -6.532461798400138 0 0 0
3077 2 5 0.0 -2.581069475164242 -16.534255358167584 -12.433534092971371 0 0 0
3488 2 5 0.0 -2.487550208282799 -21.228663240186943 -9.829722033973818 0 0 0
3453 2 5 0.0 -5.353972539363651 -21.310680985519873 -11.644926946312173 0 0 0
3492 2 5 0.0 -5.046875951712082 -19.648937821701097 -8.768068419305393 0 0 0
3078 2 5 0.0 -5.279976310467237 -18.11801800391833 -11.479576882181505 0 0 0
3079 2 5 0.0 -4.990287787597247 -16.48224859828252 -8.622413079819006 0 0 0
3490 2 5 0.0 -2.3618085866783645 -18.139999882664746 -9.716353242547516 0 0 0
3546 2 5 0.0 -2.1834251871085595 -16.650056807928415 -6.868218334651138 0 0 0
3489 2 5 0.0 -2.2127478191398517 -19.87836130375513 -6.851715975737846 0 0 0
2356 2 5 0.0 -23.828527564601092 -14.352016859446504 -11.696997972931797 0 0 0
2377 2 5 0.0 -20.96058126060202 -14.423720845419698 -10.06744878954593 0 0 0
2381 2 5 0.0 -23.81829841318424 -10.979819142658004 -11.729729772419818 0 0 0
2378 2 5 0.0 -23.47957642078277 -12.70955537218215 -8.950139455665726 0 0 0
2374 2 5 0.0 -20.80555641762782 -13.037944051669987 -7.156525743315956 0 0 0
2372 2 5 0.0 -20.802723849130988 -11.15450427113783 -9.936728189050015 0 0 0
2375 2 5 0.0 -20.68119092694561 -9.660616755935838 -7.115555906714075 0 0 0
2380 2 5 0.0 -23.504580979746947 -9.494905820532898 -8.669813174887988 0 0 0
2691 2 5 0.0 -15.880259136625995 -14.507006364926571 -12.38331970017068 0 0 0
2382 2 5 0.0 -15.63185075589106 -11.275207681577271 -12.208743498668616 0 0 0
2681 2 5 0.0 -18.128818667889576 -14.522407107482643 -8.329822909944022 0 0 0
2680 2 5 0.0 -15.27891931247353 -14.701552702980678 -6.6835798186693065 0 0 0
2384 2 5 0.0 -18.360728262188925 -12.785403298023063 -11.054579565023744 0 0 0
2693 2 5 0.0 -15.53723037264819 -12.943115362756782 -9.393734329196578 0 0 0
2371 2 5 0.0 -18.102628917816233 -11.3340573964047 -8.071721658353766 0 0 0
2427 2 5 0.0 -15.49462467601597 -9.755143114655716 -9.290744103630042 0 0 0
2724 2 5 0.0 -15.192103034001175 -11.451768590354169 -6.576219168083616 0 0 0
2690 2 5 0.0 -13.14306376395597 -14.685640485848777 -10.63472630608026 0 0 0
2730 2 5 0.0 -12.93966845596644 -11.485959594675501 -10.512810764089771 0 0 0
2731 2 5 0.0 -12.788523690547889 -13.101665908764783 -7.807830392971237 0 0 0
2385 2 5 0.0 -18.250642496985837 -9.546702794564617 -10.86772523038056 0 0 0
2732 2 5 0.0 -12.65308141471373 -9.8015281798806 -7.647551793203029 0 0 0
3073 2 5 0.0 -7.475537406691414 -14.965215026365813 -7.392869613483353 0 0 0
3074 2 5 0.0 -10.291295874300113 -14.682788468873524 -9.03235204561295 0 0 0
2737 2 5 0.0 -10.498235359482553 -13.061847792069065 -11.76772781060895 0 0 0
3085 2 5 0.0 -7.690097156828785 -13.129561427174396 -10.11460610375889 0 0 0
2729 2 5 0.0 -10.129490290342352 -11.535711034171776 -8.96998329871116 0 0 0
2738 2 5 0.0 -10.300154528805322 -9.890163666540483 -11.594343904285845 0 0 0
2789 2 5 0.0 -7.448695581198041 -9.788725039076862 -9.849794149030492 0 0 0
3150 2 5 0.0 -7.354198282159235 -11.625136888994694 -7.200319405169902 0 0 0
3161 2 5 0.0 -2.5703620497303126 -13.378610161815876 -12.247975178212947 0 0 0
3155 2 5 0.0 -2.2660221240009366 -14.987134287937609 -9.597139734626905 0 0 0
3080 2 5 0.0 -5.172081879318426 -14.778374073429255 -11.237972058406445 0 0 0
3162 2 5 0.0 -2.3238742891772888 -10.058583367142065 -12.232217538159746 0 0 0
3164 2 5 0.0 -4.870170224185295 -13.328511276138128 -8.41078515495443 0 0 0
3160 2 5 0.0 -2.246031295716241 -11.828882551043588 -9.44799998846689 0 0 0
3163 2 5 0.0 -4.969683565669759 -11.596227619893956 -11.17389135514197 0 0 0
3165 2 5 0.0 -4.6503389687785806 -10.008092587456215 -8.250727685256937 0 0 0
3156 2 5 0.0 -2.0381096961574605 -13.426344981834356 -6.766593816609914 0 0 0
3159 2 5 0.0 -1.922059772286493 -10.206492659643192 -6.692433336771265 0 0 0
2265 2 5 0.0 -20.863954944046693 -6.181042871932263 -12.443139966619118 0 0 0
2263 2 5 0.0 -23.711579451878826 -7.683879537744049 -11.570493287722792 0 0 0
2379 2 5 0.0 -20.782425455925097 -7.926812753082525 -9.82171315106038 0 0 0
2264 2 5 0.0 -23.261969640700723 -6.17597359448464 -8.66328213683304 0 0 0
2423 2 5 0.0 -20.582801690602995 -6.411320760420471 -6.993161220673779 0 0 0
2270 2 5 0.0 -20.652884895057028 -4.704051075748606 -9.574048811674881 0 0 0
2271 2 5 0.0 -20.46134473805831 -3.2198723702188037 -6.723288391850391 0 0 0
2426 2 5 0.0 -15.58696421279426 -7.97311676639471 -11.966228522065007 0 0 0
2429 2 5 0.0 -15.50669537845433 -4.7392229197293885 -11.942153680789252 0 0 0
2416 2 5 0.0 -18.067799791079274 -8.151681222169671 -8.000288201025583 0 0 0
2430 2 5 0.0 -18.172604741077986 -6.319342367529221 -10.700444965656722 0 0 0
2428 2 5 0.0 -15.445863493659067 -6.543894010386735 -9.276916957865087 0 0 0
2421 2 5 0.0 -18.018429615810128 -4.89878333254779 -7.94020897809211 0 0 0
2425 2 5 0.0 -12.899804890290442 -8.149064683045975 -10.455677563880142 0 0 0
2485 2 5 0.0 -12.731884551826315 -4.89407211562912 -10.343370095542314 0 0 0
2415 2 5 0.0 -15.241738219859325 -8.339276854893747 -6.401324434895459 0 0 0
2490 2 5 0.0 -15.204891199440372 -3.3694321396207805 -9.109233527199377 0 0 0
2473 2 5 0.0 -15.10264233673215 -5.0485874711514835 -6.401059779403697 0 0 0
2486 2 5 0.0 -12.592144240507745 -6.608536717775905 -7.714880550462283 0 0 0
2487 2 5 0.0 -12.371353218610889 -3.513923233948057 -7.403560183988215 0 0 0
2778 2 5 0.0 -7.391082319833915 -8.306097503570264 -7.116544343483646 0 0 0
2779 2 5 0.0 -10.11731186202411 -8.244118141894479 -8.788717465033335 0 0 0
2498 2 5 0.0 -10.166639831083119 -6.537330576733452 -11.486809182853529 0 0 0
2790 2 5 0.0 -7.4043832088844 -6.655105547318114 -10.029969544665022 0 0 0
2484 2 5 0.0 -9.992772862505342 -4.965179357364144 -8.699342047449793 0 0 0
2493 2 5 0.0 -7.400709187445192 -3.502448640415848 -9.766404497268855 0 0 0
2776 2 5 0.0 -7.263954535042415 -4.991707770587119 -7.071027871651668 0 0 0
2499 2 5 0.0 -10.210029443880977 -3.372268750187291 -11.52706306218302 0 0 0
3158 2 5 0.0 -2.1742445953403355 -8.465915249663345 -9.376330424059773 0 0 0
2785 2 5 0.0 -4.8144065338727655 -8.437683563314852 -11.080414604200175 0 0 0
2782 2 5 0.0 -2.2719731963637724 -6.7451052572814945 -12.160361770811603 0 0 0
2784 2 5 0.0 -4.734156570098992 -6.741224396759925 -8.204785806794217 0 0 0
2833 2 5 0.0 -2.1756428666758487 -3.467376246037885 -11.854053653359891 0 0 0
2783 2 5 0.0 -4.80857684788712 -5.211074582781822 -11.003047883808831 0 0 0
2832 2 5 0.0 -2.0270619414209325 -5.158362246373934 -9.323084566168719 0 0 0
2834 2 5 0.0 -4.596668647572539 -3.569564189888064 -8.03989052571355 0 0 0
3228 2 5 0.0 -1.864836319148542 -6.881614621630608 -6.507628416389702 0 0 0
2831 2 5 0.0 -1.8229397691452387 -3.7221194986991852 -6.390861736916159 0 0 0
2275 2 5 0.0 -23.29359351994555 -3.031043815691872 -8.347114656550357 0 0 0
2279 2 5 0.0 -21.189456587926305 -2.9101436549616926 -12.253566701536018 0 0 0
2273 2 5 0.0 -20.673678040177446 -1.2388343117356273 -9.352527576281464 0 0 0
2299 2 5 0.0 -20.47630557257528 0.07418418115033804 -6.5171844542302155 0 0 0
2277 2 5 0.0 -18.134953188947932 -3.1198197988738032 -10.766679302901286 0 0 0
2304 2 5 0.0 -15.396982616400498 1.7062006526113023 -11.625031484211904 0 0 0
2301 2 5 0.0 -15.51341434196788 -1.558342385829418 -11.86710474752267 0 0 0
2293 2 5 0.0 -17.80885448352998 -1.6238739437381353 -7.808154115084185 0 0 0
2305 2 5 0.0 -18.010338436068327 0.22650305284233796 -10.59380269345004 0 0 0
2302 2 5 0.0 -15.209720490438293 -0.07124203454653238 -8.90496836470486 0 0 0
2297 2 5 0.0 -17.873744523151718 1.5567981902563446 -7.697660485059433 0 0 0
2489 2 5 0.0 -12.604550364844453 -1.6960694270663716 -10.061488415641117 0 0 0
2300 2 5 0.0 -12.599965225054087 1.4907421864993124 -10.004401288804372 0 0 0
2303 2 5 0.0 -15.182662268374326 3.07478927402217 -8.795153782552717 0 0 0
2492 2 5 0.0 -7.574349400014776 -1.6549583905601202 -12.392544001530371 0 0 0
2488 2 5 0.0 -12.485897442844102 -0.21889612013961993 -7.181757867879499 0 0 0
2551 2 5 0.0 -7.524182652836788 1.5898173133858564 -12.165883246564068 0 0 0
2539 2 5 0.0 -7.0894652130081335 -1.945214720835227 -6.8446753915676934 0 0 0
2482 2 5 0.0 -9.937905160993392 -1.7688498847366403 -8.3445902955763 0 0 0
2501 2 5 0.0 -10.04050868660646 -0.08346537826678457 -11.162292722929909 0 0 0
2548 2 5 0.0 -7.28161134692416 -0.16295073999940182 -9.558931557082191 0 0 0
2542 2 5 0.0 -9.891905109446144 1.4276442131874572 -8.273169399573248 0 0 0
2537 2 5 0.0 -7.121756744629867 1.261802983582486 -6.604475233242401 0 0 0