LAMMPS data file via write_data, version 21 Jul 2020, timestep = 215600000

4536 atoms
7 atom types
301 bonds
16 bond types
600 angles
55 angle types
891 dihedrals
192 dihedral types

-500.0 500.0 xlo xhi
-500.0 500.0 ylo yhi
-500.0 500.0 zlo zhi

Masses

1 12.011
2 12.011
3 1.008
4 32.06
5 1.008
6 12.011
7 196.967

Atoms # full

304 2 7 0.0 -4.698108294497039 -13.603977855501034 -20.62105620739423 0 0 0
428 2 7 0.0 -1.5647590779737461 -13.597076953449783 -19.536924841187922 0 0 0
316 2 7 0.0 -7.221839313409374 -8.501492046504485 -21.83448354701841 0 0 0
305 2 7 0.0 -6.567421996048539 -10.977278876986388 -19.679712688370007 0 0 0
319 2 7 0.0 -0.8732762665839902 -7.056567979113093 -24.65136196597722 0 0 0
306 2 7 0.0 -2.5462273835931404 -11.317064320129434 -21.472873997269094 0 0 0
320 2 7 0.0 -3.1852301748836185 -9.129400725380389 -23.781926371811526 0 0 0
318 2 7 0.0 -2.1098869316729454 -6.797164007735625 -21.565596154923636 0 0 0
311 2 7 0.0 -4.329868332194342 -8.947515926252578 -20.64315085360043 0 0 0
471 2 7 0.0 -1.147149113519843 -9.134780317794053 -19.48195965344922 0 0 0
314 2 7 0.0 -5.062010047688941 -6.443738410663074 -22.629079931834834 0 0 0
312 2 7 0.0 -6.099913383118006 -6.282212719044273 -19.682466897577367 0 0 0
317 2 7 0.0 -0.21530825973600407 -9.363017735996722 -22.717349823647076 0 0 0
315 2 7 0.0 -9.129630307004863 -6.076737975460024 -20.48789348258017 0 0 0
339 2 7 0.0 -8.855332977696468 -1.4473822351453252 -20.650397650341922 0 0 0
331 2 7 0.0 -11.11223226332344 -3.5461549735130595 -19.630028943448224 0 0 0
340 2 7 0.0 -6.9266287697726705 -4.091826546735539 -21.751699303140988 0 0 0
345 2 7 0.0 -0.4845683566158079 -2.6393188901936533 -24.726808976091757 0 0 0
346 2 7 0.0 -2.842136431753559 -4.639183505089434 -23.79916693005339 0 0 0
334 2 7 0.0 -3.8888913344635054 -4.220719036945263 -20.535466063935203 0 0 0
338 2 7 0.0 -4.6725469376777 -2.141927940866751 -23.00779704731971 0 0 0
343 2 7 0.0 -1.5047221830617576 -2.3061913189840317 -21.692632303473008 0 0 0
335 2 7 0.0 -5.594967139527428 -1.8636533725553364 -19.59759610000037 0 0 0
531 2 7 0.0 -0.7964661183899217 -4.676851068505883 -19.508426663946647 0 0 0
529 2 7 0.0 -0.2677068565490823 -0.1695463439628998 -19.58983069411669 0 0 0
344 2 7 0.0 -2.2385559627260627 -0.12063012072492339 -23.808194122763013 0 0 0
417 2 7 0.0 -6.731749488601537 -13.044786914567366 -14.329642110866228 0 0 0
409 2 7 0.0 -8.877916852853724 -15.239407001771385 -13.468497559279653 0 0 0
411 2 7 0.0 -9.954443062180616 -12.777084113584205 -15.481029093724779 0 0 0
422 2 7 0.0 -3.745769149522812 -15.891186705123756 -18.497783910370444 0 0 0
397 2 7 0.0 -3.0543161589876555 -18.048131772210635 -16.248390992492666 0 0 0
421 2 7 0.0 -5.93583907430683 -13.319074050350917 -17.532332087264688 0 0 0
413 2 7 0.0 -2.6668102615575746 -13.627568654686794 -16.420024440722223 0 0 0
419 2 7 0.0 -4.9981368219041284 -15.666056066573022 -15.37083296914787 0 0 0
418 2 7 0.0 -1.859342919095305 -15.925820740624232 -14.273972658683611 0 0 0
415 2 7 0.0 -3.616305463563794 -13.455578878537677 -13.314677636941713 0 0 0
427 2 7 0.0 -0.6515313458833345 -16.087400442444068 -17.30861373131363 0 0 0
398 2 7 0.0 -4.20542222166805 -18.09224858811391 -13.213960069086339 0 0 0
448 2 7 0.0 -13.553132602516076 -7.900145561875014 -13.409186715015482 0 0 0
310 2 7 0.0 -12.431248127386894 -7.940558118305905 -16.627432584980998 0 0 0
313 2 7 0.0 -8.406531905517085 -8.4694486305514 -18.564071685810582 0 0 0
455 2 7 0.0 -7.524606054384993 -10.637550475853484 -16.37368747763151 0 0 0
303 2 7 0.0 -10.719781568149 -10.623338518296185 -17.65573707504514 0 0 0
410 2 7 0.0 -11.938407594222287 -10.574768375707494 -14.474849592428741 0 0 0
454 2 7 0.0 -9.479646135530361 -8.44333444798993 -15.442864101761314 0 0 0
406 2 7 0.0 -8.762309413688895 -10.689124085851676 -13.395504326087847 0 0 0
461 2 7 0.0 -6.404912583548473 -8.59191054765029 -14.391923834814346 0 0 0
463 2 7 0.0 -7.198695435326858 -6.250337735177285 -16.464322934215684 0 0 0
420 2 7 0.0 -3.548060065897991 -11.048345366438538 -18.388744566299355 0 0 0
412 2 7 0.0 -1.4278957400448373 -11.379750609747433 -14.428162192822926 0 0 0
416 2 7 0.0 -4.431769642948481 -11.196536008790908 -15.360163694295554 0 0 0
464 2 7 0.0 -5.268270824425929 -8.681050828942908 -17.537694790522036 0 0 0
462 2 7 0.0 -3.0470319353715376 -6.698015002084256 -18.545524303934297 0 0 0
457 2 7 0.0 -2.171366685046942 -8.935345040920039 -16.37992174538359 0 0 0
456 2 7 0.0 -0.9500630872204021 -6.760345891759911 -14.313878996236022 0 0 0
459 2 7 0.0 -3.3045654024111775 -8.952837555822219 -13.410710700744469 0 0 0
426 2 7 0.0 -0.4203811061618048 -11.589048536957613 -17.348293460679265 0 0 0
460 2 7 0.0 -4.131805804471664 -6.645740390550099 -15.415924174109161 0 0 0
330 2 7 0.0 -12.83954826628226 -1.131588844981439 -18.503968784644446 0 0 0
308 2 7 0.0 -14.588864091907489 -5.520335605901259 -15.52469704709185 0 0 0
325 2 7 0.0 -13.949089911908588 -0.8744449181798292 -15.464898669609672 0 0 0
500 2 7 0.0 -13.204268088350792 -3.242776555824534 -13.39598046381462 0 0 0
447 2 7 0.0 -15.694790549379823 -5.317300738874896 -12.520186731634237 0 0 0
451 2 7 0.0 -8.149350221388328 -6.207028960024037 -13.445230158167702 0 0 0
309 2 7 0.0 -10.278318963747624 -5.733607364536535 -17.413117337234333 0 0 0
336 2 7 0.0 -7.924566314131811 -3.9196025987275633 -18.533388777043697 0 0 0
453 2 7 0.0 -11.287740214012524 -5.783672792187562 -14.416079019903533 0 0 0
328 2 7 0.0 -12.056882734373398 -3.3487823137267796 -16.381193620004456 0 0 0
509 2 7 0.0 -8.861591266192608 -3.7912248301049334 -15.412392878413193 0 0 0
327 2 7 0.0 -9.702118425827685 -1.384169048532381 -17.55675843410058 0 0 0
508 2 7 0.0 -10.776545009478575 -1.2808006757926031 -14.443544583476411 0 0 0
505 2 7 0.0 -7.6808000471941105 -1.5306406073831749 -13.54618297083977 0 0 0
521 2 7 0.0 -6.679578966407136 -1.7943993438786612 -16.5419820028679 0 0 0
520 2 7 0.0 -2.596227773825412 -2.308630765521136 -18.50907175660802 0 0 0
518 2 7 0.0 -5.983017596810704 -4.162148411397838 -14.510207770953299 0 0 0
514 2 7 0.0 -1.7009805953717767 -4.552045510806694 -16.437488287468852 0 0 0
522 2 7 0.0 -4.839398209272146 -4.284548674405248 -17.492329713570292 0 0 0
517 2 7 0.0 -3.756706411248462 -1.848618655034174 -15.486593757279614 0 0 0
516 2 7 0.0 -2.9709791995386694 -4.360527199005852 -13.360066471878774 0 0 0
513 2 7 0.0 -0.6307426404463231 -2.4175306359022524 -14.433100483286106 0 0 0
695 2 7 0.0 -0.1945699124345292 -20.701184371077343 -10.161957127623918 0 0 0
697 2 7 0.0 -3.3484773623378072 -20.491745664746883 -11.095222939558582 0 0 0
696 2 7 0.0 -4.4160343691044694 -20.400488891048948 -8.141243551857137 0 0 0
998 2 7 0.0 -1.162186263572603 -20.615242291846144 -7.047808565506667 0 0 0
709 2 7 0.0 -13.144182950402628 -12.80182239633423 -6.3091838923705685 0 0 0
407 2 7 0.0 -10.868960673159433 -12.966175101496749 -12.339260751166675 0 0 0
396 2 7 0.0 -8.019638619945534 -17.629198103013955 -11.231338594002281 0 0 0
691 2 7 0.0 -9.152830236041043 -17.68327441087601 -8.137584376866275 0 0 0
408 2 7 0.0 -9.99587023167319 -15.145768695667572 -10.25758687332494 0 0 0
405 2 7 0.0 -7.765240144038396 -13.02262207212106 -11.220831025021997 0 0 0
717 2 7 0.0 -8.88075857194698 -12.917880023515789 -8.167651486583031 0 0 0
719 2 7 0.0 -6.990447347549105 -15.32787908642856 -9.128838791494546 0 0 0
713 2 7 0.0 -11.101871514951464 -15.16788342265885 -7.010365174467028 0 0 0
402 2 7 0.0 -12.03369640946667 -12.725865482715458 -9.154622600568533 0 0 0
690 2 7 0.0 -6.139732672928405 -17.74733516094889 -7.102852361533076 0 0 0
720 2 7 0.0 -5.8502598264199355 -15.41418455119735 -12.076925213647424 0 0 0
692 2 7 0.0 -1.065685520461641 -18.1891276159864 -12.052466382453888 0 0 0
693 2 7 0.0 -2.130654060699079 -18.224832580707815 -9.05120810832333 0 0 0
694 2 7 0.0 -5.098925838213688 -17.768137248196116 -10.031308488426168 0 0 0
729 2 7 0.0 -2.932015405791872 -15.754047207516525 -11.193645079666322 0 0 0
726 2 7 0.0 -4.732835623293836 -13.2375904754182 -10.120684997249079 0 0 0
724 2 7 0.0 -1.668212118632744 -13.56272472857348 -9.18312723960326 0 0 0
728 2 7 0.0 -3.9016360766501963 -15.523310726195033 -8.129811946918485 0 0 0
715 2 7 0.0 -5.879930547064796 -13.019028247456173 -7.200837899096576 0 0 0
1048 2 7 0.0 -0.9565043681863088 -15.970002519336576 -7.190300776180212 0 0 0
722 2 7 0.0 -0.5794972751181178 -13.714018233286547 -12.197361248883418 0 0 0
401 2 7 0.0 -13.83851133890001 -10.000457958704096 -8.271961730145504 0 0 0
444 2 7 0.0 -14.650219912600813 -7.754368719389362 -10.465315320904821 0 0 0
445 2 7 0.0 -15.770060913256673 -7.423499811853462 -7.484528881026913 0 0 0
403 2 7 0.0 -13.026202609634366 -10.43289231003728 -11.25566485161316 0 0 0
757 2 7 0.0 -12.64285776083996 -7.7861981795106825 -6.324562493852569 0 0 0
452 2 7 0.0 -10.379756740273592 -8.126824998180954 -12.344704821883584 0 0 0
404 2 7 0.0 -9.68910764121671 -10.596505386865083 -10.352638166417039 0 0 0
442 2 7 0.0 -11.548925469423011 -8.164053217519854 -9.398193238184264 0 0 0
450 2 7 0.0 -7.3686978177622064 -8.524109286687882 -11.390966346272776 0 0 0
763 2 7 0.0 -8.592390926524393 -8.38762182381657 -8.123440403251012 0 0 0
708 2 7 0.0 -10.870993068633508 -10.385595882036599 -7.310003256992792 0 0 0
716 2 7 0.0 -6.6586495905149325 -10.769673236166652 -9.318999838734031 0 0 0
762 2 7 0.0 -6.3152784948471625 -6.373629209689923 -9.209544073198538 0 0 0
765 2 7 0.0 -0.22303731385708664 -9.300275597825365 -12.322703410270478 0 0 0
414 2 7 0.0 -5.548823322368794 -10.952275459147197 -12.345006579524117 0 0 0
725 2 7 0.0 -2.462779192112974 -11.22364237303125 -11.22020409133219 0 0 0
723 2 7 0.0 -3.50252867294228 -11.064399699811434 -8.161697261286402 0 0 0
769 2 7 0.0 -4.315731514359006 -8.775107144896982 -10.305187247695615 0 0 0
768 2 7 0.0 -2.043343271231576 -6.797386917783757 -11.281695748433101 0 0 0
767 2 7 0.0 -1.1671282698716725 -9.036736123597999 -9.241609132821456 0 0 0
761 2 7 0.0 -5.544253193486174 -8.681126082125212 -7.217806911092445 0 0 0
1044 2 7 0.0 -0.4711856857414252 -11.167834048099962 -7.02945327325581 0 0 0
766 2 7 0.0 -3.1451728222592523 -6.659273696093566 -8.259723720064827 0 0 0
458 2 7 0.0 -5.16880516070907 -6.385717120198425 -12.353735362600005 0 0 0
1110 2 7 0.0 -0.18095435432265225 -6.8895883685234365 -7.203696465634793 0 0 0
499 2 7 0.0 -15.051061514272176 -1.0268976805833134 -12.475364620596181 0 0 0
441 2 7 0.0 -13.338103478071073 -5.515074481308971 -8.314829506093362 0 0 0
446 2 7 0.0 -16.59437446562442 -5.01110512616577 -9.481142068478405 0 0 0
496 2 7 0.0 -15.929647992348917 -0.7847806171243915 -9.387445115230701 0 0 0
495 2 7 0.0 -14.011523474389076 -3.158931956358691 -10.404376853200532 0 0 0
792 2 7 0.0 -15.0766189052708 -3.0955832060983894 -7.286750055843255 0 0 0
492 2 7 0.0 -12.867739616329953 -0.9747275461197449 -8.269444278920334 0 0 0
488 2 7 0.0 -17.051186408777713 -0.5785911929887169 -6.450740317779875 0 0 0
449 2 7 0.0 -9.23873715297146 -6.044754710230442 -10.397229100406635 0 0 0
443 2 7 0.0 -12.437235749937065 -5.682151802939175 -11.298460872267073 0 0 0
506 2 7 0.0 -9.943755693620085 -3.603505377121971 -12.405782300070687 0 0 0
756 2 7 0.0 -10.230249246254841 -5.89331075410807 -7.325847275681618 0 0 0
494 2 7 0.0 -11.826720406237278 -1.1515313017438356 -11.418425377642404 0 0 0
493 2 7 0.0 -11.013874011542471 -3.4961838847803404 -9.390803535848383 0 0 0
503 2 7 0.0 -8.74625281234639 -1.468812930158364 -10.432027647369246 0 0 0
807 2 7 0.0 -8.03839950024855 -3.866259010404958 -8.386427529827694 0 0 0
504 2 7 0.0 -6.986985266032847 -3.997883858650061 -11.56606272369652 0 0 0
798 2 7 0.0 -9.897726208396543 -1.3391146997801284 -7.383808752352601 0 0 0
799 2 7 0.0 -12.036354611457211 -3.3555578891410582 -6.316151240748353 0 0 0
804 2 7 0.0 -6.926847322409381 -1.7050484719394883 -6.348353491053319 0 0 0
515 2 7 0.0 -4.797931011361739 -1.848664240669202 -12.434418683976638 0 0 0
816 2 7 0.0 -3.9103810227796685 -4.25172146751548 -10.262648532192884 0 0 0
806 2 7 0.0 -5.802567999356071 -1.6695648794694216 -9.440091154627499 0 0 0
815 2 7 0.0 -1.6827386906609445 -2.0813820067760798 -11.218700898464798 0 0 0
813 2 7 0.0 -2.7480682555304914 -1.9653984044416222 -8.190084259736013 0 0 0
814 2 7 0.0 -0.98003428423836 -4.510993259823294 -9.16203861328312 0 0 0
805 2 7 0.0 -5.064385828799204 -4.072334837901145 -7.307102261570857 0 0 0
988 2 7 0.0 -6.501159982034838 -20.079121281558482 -1.8718696298552764 0 0 0
989 2 7 0.0 -5.416551841286891 -20.333924208452284 -5.2188237708982 0 0 0
997 2 7 0.0 -2.3962908067109914 -20.476386201726918 -4.14858922114137 0 0 0
985 2 7 0.0 -3.4407592536026197 -20.218449792142792 -0.9475019478003597 0 0 0
718 2 7 0.0 -8.076166698710725 -15.320902821858255 -6.092193835311612 0 0 0
712 2 7 0.0 -12.326648208182275 -14.99356785401749 -4.0103488883946685 0 0 0
689 2 7 0.0 -10.333093224232803 -17.678841072919855 -4.987670603513361 0 0 0
1026 2 7 0.0 -9.182241820366242 -15.155619051059233 -3.0962814409038812 0 0 0
987 2 7 0.0 -7.290917780012982 -17.76584649818582 -4.1680464658634095 0 0 0
983 2 7 0.0 -8.40938508727493 -17.581100807925978 -0.9371559327050049 0 0 0
1033 2 7 0.0 -6.8927022918155725 -13.184704259538533 -4.167291551729187 0 0 0
1021 2 7 0.0 -7.796386684504418 -12.990670824366246 -1.0009343564685997 0 0 0
707 2 7 0.0 -9.974513778748056 -12.86815367984115 -5.304004654815636 0 0 0
1023 2 7 0.0 -11.121353047431551 -12.799922217373027 -2.1172413941428747 0 0 0
995 2 7 0.0 -3.157214907062331 -18.163295035878065 -6.139320348444613 0 0 0
994 2 7 0.0 -0.1479355189588795 -18.291612936419973 -4.998179135794322 0 0 0
1045 2 7 0.0 -2.76454702209698 -13.304205302244409 -6.073129877994554 0 0 0
1034 2 7 0.0 -6.0731527984718525 -15.44240909099376 -2.055111137356037 0 0 0
1029 2 7 0.0 -3.0702903664706622 -15.851314423291807 -1.1089138941628196 0 0 0
991 2 7 0.0 -1.1565575504748908 -18.353488999907736 -2.0102413820427474 0 0 0
1038 2 7 0.0 -0.8285989780281242 -13.56575798931919 -1.7789192606195785 0 0 0
986 2 7 0.0 -4.1687133094345095 -17.93417142240811 -3.1177623515297777 0 0 0
1035 2 7 0.0 -4.989698994053752 -15.464816498807908 -5.055371176797758 0 0 0
1047 2 7 0.0 -1.9455671533513763 -15.81650840923859 -4.142225221958243 0 0 0
1031 2 7 0.0 -3.807537542094217 -13.303587338181538 -2.9622820901768554 0 0 0
710 2 7 0.0 -14.175036715783994 -12.430376272258162 -3.2656866282587393 0 0 0
711 2 7 0.0 -14.76007301689648 -10.098881993627339 -5.339559814195364 0 0 0
753 2 7 0.0 -16.686954236290788 -7.414442754161441 -4.337161310497989 0 0 0
758 2 7 0.0 -13.459819627975246 -7.9215065827276305 -3.236096000855296 0 0 0
705 2 7 0.0 -15.990758106969958 -9.902105333020172 -2.2293955678725554 0 0 0
1087 2 7 0.0 -12.823713096441967 -10.14624463589202 -1.1789946622006329 0 0 0
1084 2 7 0.0 -14.662564032342727 -7.670556906642559 -0.2972344367278181 0 0 0
714 2 7 0.0 -7.971526992070483 -10.594353434116465 -6.155095031032873 0 0 0
706 2 7 0.0 -11.802200185817451 -10.438927396234645 -4.275481329491863 0 0 0
755 2 7 0.0 -9.697782761697566 -8.128959430695373 -5.08639297553609 0 0 0
1022 2 7 0.0 -8.773314573937443 -10.614932059891233 -3.0928041353212374 0 0 0
1094 2 7 0.0 -10.530793606973363 -8.111121051176307 -1.9929662977266607 0 0 0
1092 2 7 0.0 -7.537712951907886 -8.375614276772936 -1.0174138519088394 0 0 0
1102 2 7 0.0 -6.530364261357419 -8.51543618281239 -4.190124099650579 0 0 0
1111 2 7 0.0 -2.3075917376941204 -8.95174538462259 -5.982274382937107 0 0 0
1042 2 7 0.0 -1.6049001542311372 -11.208219719542004 -4.003976509049899 0 0 0
1032 2 7 0.0 -4.67151706775333 -11.094069594941137 -5.043956949088467 0 0 0
1030 2 7 0.0 -5.690359527871377 -10.915127786416953 -2.0298646760845753 0 0 0
1100 2 7 0.0 -3.4267471578788666 -8.890677785158982 -2.970186244844211 0 0 0
1027 2 7 0.0 -2.587284558528795 -11.058703873048062 -0.904601044303394 0 0 0
1108 2 7 0.0 -1.1633097153847374 -6.711867584393448 -4.1081729210574895 0 0 0
1097 2 7 0.0 -2.1700587300587646 -6.567862292984889 -0.9338623477262505 0 0 0
1105 2 7 0.0 -0.4165527539370639 -9.076974004620261 -1.9352913748659946 0 0 0
1101 2 7 0.0 -4.128439415687403 -6.458946683099007 -5.229973304790615 0 0 0
1099 2 7 0.0 -5.188700593804956 -6.312763696106418 -2.1233181686311084 0 0 0
1098 2 7 0.0 -4.3577431091400465 -8.681114637197823 -0.019430112136215448 0 0 0
440 2 7 0.0 -17.569285552088736 -4.91534830562714 -6.224246097842602 0 0 0
759 2 7 0.0 -14.387471639479884 -5.487684258348513 -5.195872047414134 0 0 0
790 2 7 0.0 -17.435686410750996 -2.825749534588359 -1.1401129591560717 0 0 0
752 2 7 0.0 -15.452494941483973 -5.315864185240088 -2.2672871682093696 0 0 0
801 2 7 0.0 -13.91510590773445 -0.8123521460408835 -5.2646313101146855 0 0 0
789 2 7 0.0 -16.382894300901746 -2.7614666512780444 -4.272958651061852 0 0 0
788 2 7 0.0 -15.203306609104839 -0.653275053271498 -2.20863405328043 0 0 0
800 2 7 0.0 -13.231403530886551 -3.1119864941592286 -3.2427906636524093 0 0 0
1146 2 7 0.0 -14.2166116274187 -3.070675393944027 -0.13621045383711228 0 0 0
791 2 7 0.0 -18.243520954966378 -0.33064726347252954 -3.161783328970202 0 0 0
760 2 7 0.0 -7.328294269200589 -6.200215024584566 -6.143646088962156 0 0 0
1096 2 7 0.0 -12.348351682158283 -5.568497920171127 -1.08599312892746 0 0 0
1093 2 7 0.0 -8.159237556054583 -5.95295936000138 -3.143919634499463 0 0 0
754 2 7 0.0 -11.312132742116658 -5.689355121504471 -4.165279714584336 0 0 0
1157 2 7 0.0 -7.00697840312796 -3.7109723519749056 -1.1468673413962511 0 0 0
797 2 7 0.0 -8.9990210648751 -3.652138249881699 -5.2122930760012665 0 0 0
1158 2 7 0.0 -7.78283747252723 -1.4420916874540248 -3.2030937803359967 0 0 0
796 2 7 0.0 -10.85498586739977 -1.2037772737389387 -4.137197297364176 0 0 0
1159 2 7 0.0 -10.125930765562565 -3.5347833352967495 -2.12709467924077 0 0 0
1161 2 7 0.0 -11.997952217232937 -1.1123419914592074 -1.101082109721682 0 0 0
1156 2 7 0.0 -8.888628012509098 -1.411207602932162 -0.027918897647629327 0 0 0
1164 2 7 0.0 -4.028092410753874 -4.123021238542897 -0.0705565956859303 0 0 0
1163 2 7 0.0 -1.674284979759589 -2.0270906799153066 -1.0403021897375981 0 0 0
1170 2 7 0.0 -5.8812143762732365 -3.9237941664662266 -4.272293189448192 0 0 0
1184 2 7 0.0 -2.003710778401508 -4.274219238519978 -6.134133167068578 0 0 0
1181 2 7 0.0 -0.8193085867103151 -2.110050351321984 -4.129965628245391 0 0 0
1169 2 7 0.0 -3.823865697433999 -1.8117894783345252 -5.264545663097432 0 0 0
1168 2 7 0.0 -2.9599707881521393 -4.2729314987297595 -3.1115492777678617 0 0 0
1167 2 7 0.0 -4.820738446645336 -1.7671190313164409 -2.090532981449265 0 0 0
1444 2 7 0.0 -4.365630095892758 -20.36241496441012 2.3084157786219275 0 0 0
1442 2 7 0.0 -1.3238471592737386 -20.404592311542817 3.144460938894683 0 0 0
1450 2 7 0.0 -0.358243883377693 -20.697739998711736 0.03842114799288436 0 0 0
982 2 7 0.0 -9.32932026102544 -17.379460960061746 1.9985521752260746 0 0 0
1019 2 7 0.0 -11.418264189747221 -14.922412878778628 3.1523499036781524 0 0 0
1466 2 7 0.0 -8.08103649647438 -15.162245304674531 4.2079694761026145 0 0 0
1018 2 7 0.0 -7.035992903308447 -15.32017349463035 1.1524866277723278 0 0 0
1016 2 7 0.0 -8.952364108860028 -12.9121306218592 2.2062161037877384 0 0 0
1465 2 7 0.0 -10.135841426547149 -12.706822522228057 5.284117508627229 0 0 0
1024 2 7 0.0 -12.099162300933559 -12.521699568478509 0.9087677625289639 0 0 0
1462 2 7 0.0 -6.864139225374243 -12.892325299136974 6.196116369991028 0 0 0
1025 2 7 0.0 -10.09755055203525 -14.901528029826109 0.1028633735915775 0 0 0
1440 2 7 0.0 -6.324653125508235 -17.72959818678207 2.9795350225251407 0 0 0
1443 2 7 0.0 -2.1765904105815643 -18.201138451098423 1.0771676996699677 0 0 0
1441 2 7 0.0 -3.070613686086286 -17.984940403371244 4.226492695492703 0 0 0
1473 2 7 0.0 -3.912033340968561 -15.634570864780573 2.0611468956171666 0 0 0
1472 2 7 0.0 -1.8203705537215127 -13.44173562986541 1.1222276130219906 0 0 0
1469 2 7 0.0 -2.9108337365096335 -13.385917813107074 4.298046701620266 0 0 0
1470 2 7 0.0 -1.0951049878639698 -15.781256546253577 3.2354558786686356 0 0 0
1467 2 7 0.0 -5.004642585463325 -15.533880853119724 5.1717014498180385 0 0 0
1464 2 7 0.0 -5.924008533652682 -13.05581842720568 3.150248926530021 0 0 0
1744 2 7 0.0 -0.0909341285374558 -18.396215775577037 5.332598932337662 0 0 0
1028 2 7 0.0 -4.755580557160779 -13.153990137132265 0.1286078769484017 0 0 0
984 2 7 0.0 -5.306671337978864 -17.875384802739863 0.02390002932263049 0 0 0
1013 2 7 0.0 -13.268589961707622 -12.226655618135178 4.083129549740903 0 0 0
1085 2 7 0.0 -15.666311009331533 -7.568059979139295 2.91337185294975 0 0 0
1014 2 7 0.0 -13.76287385460519 -9.885269061562214 1.9172005633666942 0 0 0
1081 2 7 0.0 -12.40644016612862 -7.715040038776394 3.9754747557609114 0 0 0
1095 2 7 0.0 -11.617624582818925 -7.928821969659212 0.9817026588269845 0 0 0
1017 2 7 0.0 -10.76741211069867 -10.344917881136334 3.0452710731766373 0 0 0
1089 2 7 0.0 -8.545455920672502 -8.233809971138708 2.00563166874127 0 0 0
1463 2 7 0.0 -7.790016584017267 -10.719325390522766 4.190525723917361 0 0 0
1513 2 7 0.0 -9.517877602296576 -8.12120079376412 5.106203900301625 0 0 0
1015 2 7 0.0 -6.658451666047496 -10.73928912159269 1.0427787012086227 0 0 0
1509 2 7 0.0 -6.569365619978958 -8.294947142846166 6.190044183441316 0 0 0
1460 2 7 0.0 -11.62553825542321 -10.100428477287256 6.136418255543641 0 0 0
1020 2 7 0.0 -9.810897790775549 -10.457032823855384 0.06419998214402793 0 0 0
1514 2 7 0.0 -0.07440916575731751 -6.561135880792274 3.0796952357642686 0 0 0
1517 2 7 0.0 -1.4385650180025469 -8.8130977138024 1.2516199315667482 0 0 0
1512 2 7 0.0 -5.51328856602452 -8.542391234312214 3.1391070586681695 0 0 0
1471 2 7 0.0 -3.691540006277668 -11.032279546265162 2.141334027636796 0 0 0
1515 2 7 0.0 -2.4118065727746396 -8.693527540017152 4.266922237918459 0 0 0
1461 2 7 0.0 -4.748204150621226 -10.803846087469292 5.137006422456676 0 0 0
1468 2 7 0.0 -0.6252337945870318 -11.186303995559333 3.240603077897322 0 0 0
1516 2 7 0.0 -3.1541755953996287 -6.389302649216179 2.1640639647946625 0 0 0
1840 2 7 0.0 -1.2146979186690865 -6.546814775157955 6.132932488459492 0 0 0
1148 2 7 0.0 -16.03976735629471 -0.42980522002617516 0.9496934788749511 0 0 0
1086 2 7 0.0 -16.581246139376415 -5.16456606833818 0.9581860466768534 0 0 0
1147 2 7 0.0 -15.177357606240745 -3.052351419257423 2.9027312674003563 0 0 0
1083 2 7 0.0 -13.224001661062335 -5.389791122676475 2.013260555272086 0 0 0
1082 2 7 0.0 -14.581133863075154 -5.276034322365961 5.239445853795509 0 0 0
1142 2 7 0.0 -13.830540297723257 -0.7243031787689754 5.012090835443869 0 0 0
1145 2 7 0.0 -12.9512486297293 -0.8040524699387693 1.8680060244257526 0 0 0
1511 2 7 0.0 -7.066532893417781 -5.912911668428829 4.018640113143168 0 0 0
1090 2 7 0.0 -10.209041403199373 -5.678419092701395 3.03093163537884 0 0 0
1141 2 7 0.0 -12.126283820140184 -3.249812626391446 4.138691285190395 0 0 0
1151 2 7 0.0 -8.004101550601552 -3.6384765063663815 2.0541048807341764 0 0 0
1152 2 7 0.0 -9.883863141396064 -1.1598315204397514 2.9956741648447256 0 0 0
1160 2 7 0.0 -11.177567293837436 -3.4233685806309455 1.0236015277888337 0 0 0
1557 2 7 0.0 -9.175763579542124 -3.4885505629128075 5.076285842328738 0 0 0
1555 2 7 0.0 -6.808118236557427 -1.485033721535204 4.060580975140358 0 0 0
1547 2 7 0.0 -10.810425505438724 -0.9518986192378834 6.112959471199645 0 0 0
1505 2 7 0.0 -11.267610764664685 -5.571539657612134 6.137911730143963 0 0 0
1091 2 7 0.0 -9.183532107633386 -5.788333038447169 0.027011740448677733 0 0 0
1508 2 7 0.0 -4.195848360848191 -6.2337951022433 5.251133532956102 0 0 0
1088 2 7 0.0 -6.230189354885023 -6.1361937881262625 0.972135013496867 0 0 0
1150 2 7 0.0 -5.865288669552753 -1.6492283812658353 0.9843731592435591 0 0 0
1556 2 7 0.0 -4.934253901809109 -3.9832853281403797 3.0807083995695455 0 0 0
1562 2 7 0.0 -2.8020775378717055 -1.8609107192356986 2.186549328182119 0 0 0
1560 2 7 0.0 -2.1065478712052843 -4.246397039480881 4.154296713204536 0 0 0
1550 2 7 0.0 -3.6425504587883695 -1.6567477326090414 5.127728507094437 0 0 0
1563 2 7 0.0 -1.0233467536349545 -4.292770435832537 1.0375063933039623 0 0 0
1903 2 7 0.0 -0.7320471921253241 -2.0012048668466944 6.000721240200249 0 0 0
1551 2 7 0.0 -5.999929932489553 -3.6689984241833473 6.052404670819109 0 0 0
1770 2 7 0.0 -7.842458128721072 -12.849071279775663 9.294206989876988 0 0 0
1771 2 7 0.0 -6.155677999217174 -15.644962497679222 8.133884563386289 0 0 0
1780 2 7 0.0 -1.96064262290499 -15.676948650866649 6.264923521856879 0 0 0
1741 2 7 0.0 -4.227012720363049 -17.890482733665763 7.225426784142314 0 0 0
1767 2 7 0.0 -3.0222781461003168 -15.49387619405168 9.49348892525258 0 0 0
1743 2 7 0.0 -1.288607163956307 -18.123958334833198 8.28218155275603 0 0 0
1769 2 7 0.0 -3.7811569550195143 -13.387378312976157 7.279901557178218 0 0 0
1775 2 7 0.0 -0.7765458539602303 -13.485902933061903 8.450483342667031 0 0 0
1763 2 7 0.0 -1.850283096864367 -13.247817820845611 11.680407932178408 0 0 0
1765 2 7 0.0 -4.902475612824067 -12.989258920041495 10.31753317060285 0 0 0
1506 2 7 0.0 -13.68569949657923 -7.887875627493566 7.2999070018659635 0 0 0
1507 2 7 0.0 -8.640814838530888 -10.534978116454994 7.248408102151153 0 0 0
1503 2 7 0.0 -10.361333357578145 -7.86252557506079 8.05772510471816 0 0 0
1761 2 7 0.0 -9.812193529878 -9.999764701724866 10.253745425079726 0 0 0
1835 2 7 0.0 -7.378025035242492 -8.22733007251079 9.353802756402269 0 0 0
1766 2 7 0.0 -6.633167148698501 -10.530056716976752 11.379336213806639 0 0 0
1778 2 7 0.0 -1.6492639669771199 -11.21336820033708 6.2898629885096655 0 0 0
1768 2 7 0.0 -5.587213202930879 -10.69963828508478 8.231510301232731 0 0 0
1764 2 7 0.0 -2.607859862000298 -10.984794542522016 9.410680140951497 0 0 0
1834 2 7 0.0 -3.3545442858423096 -8.600529359372526 7.238810331643075 0 0 0
1830 2 7 0.0 -4.396927615535578 -8.4140046280946 10.272549924952576 0 0 0
1828 2 7 0.0 -1.3142290833944037 -8.579473217742837 11.384305842232187 0 0 0
1839 2 7 0.0 -0.2809544503731505 -9.062588845304042 8.336827260559138 0 0 0
1829 2 7 0.0 -2.1625156381588573 -6.395802139245683 9.321856686082535 0 0 0
1762 2 7 0.0 -3.6554044273773365 -10.792863976510972 12.41426303412684 0 0 0
1548 2 7 0.0 -13.264948307570153 -3.011398943854754 7.175670715544635 0 0 0
1504 2 7 0.0 -12.324824818065585 -5.2442221134335085 9.18240166420769 0 0 0
1545 2 7 0.0 -12.033337469157269 -0.5375025589305437 9.04987790011617 0 0 0
1510 2 7 0.0 -8.174805187254428 -5.745954457428473 6.974300550479247 0 0 0
1826 2 7 0.0 -9.182195980415255 -5.750404078660938 9.977449575544952 0 0 0
1552 2 7 0.0 -7.788688211500085 -1.0400798523594252 7.071936696352591 0 0 0
1544 2 7 0.0 -10.072829651420687 -3.2356778789413903 8.105708415344623 0 0 0
1880 2 7 0.0 -8.823033401563231 -1.109037301605505 10.161756894785983 0 0 0
1881 2 7 0.0 -11.281401037146216 -3.043046604227039 10.955584714360556 0 0 0
1895 2 7 0.0 -6.876945904144491 -3.490848201563461 9.158559417989562 0 0 0
1877 2 7 0.0 -8.27955625444037 -3.558743634266957 12.1752334970996 0 0 0
1827 2 7 0.0 -3.16688068082148 -6.21728288128297 12.370072632975283 0 0 0
1832 2 7 0.0 -6.201927341694592 -5.874865506762209 11.136585320427626 0 0 0
1833 2 7 0.0 -5.159297384389395 -6.1492049674601965 8.124767546284831 0 0 0
1886 2 7 0.0 -0.8104023573984622 -4.151062857050749 11.292566300295421 0 0 0
1890 2 7 0.0 -5.845778845808574 -1.416094729945652 11.199295650762668 0 0 0
1893 2 7 0.0 -4.552528173378878 -1.5057057994173202 8.16707918563966 0 0 0
1887 2 7 0.0 -1.5363138979504543 -1.7785361129507327 9.084125368143718 0 0 0
1894 2 7 0.0 -2.8361005014922434 -4.095569112918747 7.293092376585341 0 0 0
1888 2 7 0.0 -3.911395729318061 -3.877746057360949 10.200026242421892 0 0 0
1885 2 7 0.0 -2.7643790495674705 -1.6267688745850417 12.168925532784344 0 0 0
1825 2 7 0.0 -8.53474445539797 -7.847807875776494 12.527787563539558 0 0 0
2172 2 7 0.0 -0.12975203997021725 -6.470975816605052 13.479181544796688 0 0 0
1831 2 7 0.0 -5.438067967676551 -8.225499950946453 13.338646807082274 0 0 0
2173 2 7 0.0 -2.328717172359594 -8.545452192067193 14.460343755008404 0 0 0
2147 2 7 0.0 -0.5153730483713748 -11.039121448305423 13.615780344312906 0 0 0
1876 2 7 0.0 -7.093272529963454 -1.402357268007538 14.421436251974049 0 0 0
1878 2 7 0.0 -10.106727343946625 -0.9453707773490163 13.255768518350873 0 0 0
1824 2 7 0.0 -7.39161244354993 -5.509284525204317 14.538666847065729 0 0 0
2207 2 7 0.0 -3.759323838419567 -1.3947720296420834 15.32620692789777 0 0 0
2170 2 7 0.0 -1.0424350943512983 -6.207657881014177 16.527575891086713 0 0 0
2204 2 7 0.0 -0.7839805525209381 -1.6705336555206982 16.43716076093977 0 0 0
1889 2 7 0.0 -5.006883672487515 -3.6663318796288986 13.232917513681105 0 0 0
2206 2 7 0.0 -2.0227640401392866 -3.934772555088683 14.294597552794245 0 0 0
2174 2 7 0.0 -4.037967094917896 -6.0110570837459925 15.37335710249232 0 0 0
358 2 7 0.0 -9.966683118038675 5.476375841278345 -19.73750574663524 0 0 0
365 2 7 0.0 -8.246651316979893 2.917369804582169 -20.664679671245068 0 0 0
329 2 7 0.0 -10.632107932579345 0.9530806944873549 -19.546902614509946 0 0 0
337 2 7 0.0 -6.384603301219222 0.48428055643631057 -21.516756326793782 0 0 0
369 2 7 0.0 -0.2362863898168775 1.9804950455230372 -24.947549952218235 0 0 0
363 2 7 0.0 -5.825086202222338 4.963170116162777 -21.79550618504539 0 0 0
368 2 7 0.0 -1.9750770287278558 4.518728203618168 -23.77647772030248 0 0 0
360 2 7 0.0 -2.823900825478172 4.764663030824908 -20.71985170649853 0 0 0
367 2 7 0.0 -1.1700063335699324 2.1240617884133055 -21.694138277246203 0 0 0
364 2 7 0.0 -4.146482789108111 2.2965725236140595 -22.9238755225919 0 0 0
362 2 7 0.0 -5.133879066922879 2.670357886464707 -19.648341575556067 0 0 0
332 2 7 0.0 -3.3800630178901656 0.08427707750405465 -20.557025494065712 0 0 0
385 2 7 0.0 -7.659485506997437 7.419914776771676 -20.883540908495462 0 0 0
381 2 7 0.0 -6.510404934467583 9.57027437553992 -18.78567937066688 0 0 0
388 2 7 0.0 -0.5652134752767359 6.744836013598324 -21.775598546555337 0 0 0
384 2 7 0.0 -3.694633460783453 7.328177290387085 -22.96034081160422 0 0 0