thermo 10000
thermo_style custom step temp epair pe etotal c_c1[1] c_c1[2]  c_c1[3] c_c11[1] c_c11[2]  c_c11[3] v_Rg f_fix10 f_fix11
thermo_modify flush yes
run 80000000
WARNING: More than one compute ke/atom (src/src/compute_ke_atom.cpp:55)
WARNING: More than one compute ke/atom (src/src/compute_ke_atom.cpp:55)
Neighbor list info ...
  update every 1 steps, delay 0 steps, check yes
  max neighbors/atom: 2000, page size: 100000
  master list distance cutoff = 12.5
  ghost atom cutoff = 12.5
  binsize = 6.25, bins = 160 160 160
  4 neighbor lists, perpetual/occasional/extra = 4 0 0
  (1) pair lj/cut/coul/cut, perpetual, skip from (4)
      attributes: half, newton on
      pair build: skip
      stencil: none
      bin: none
  (2) pair lj/cut, perpetual, skip from (4)
      attributes: half, newton on
      pair build: skip
      stencil: none
      bin: none
  (3) pair morse, perpetual, skip from (4)
      attributes: half, newton on
      pair build: skip
      stencil: none
      bin: none
  (4) neighbor class addition, perpetual
      attributes: half, newton on
      pair build: half/bin/newton
      stencil: half/bin/3d/newton
      bin: standard
Per MPI rank memory allocation (min/avg/max) = 28.81 | 29.24 | 30.29 Mbytes
Step Temp E_pair PotEng TotEng c_c1[1] c_c1[2] c_c1[3] c_c11[1] c_c11[2] c_c11[3] v_Rg f_fix10 f_fix11 
216600000    296.68021   -159551.37   -159279.53   -155269.01    4.7810533   -0.4175188    -4.092092    160.41889    2.0112732   0.93593588    34.194029           -0           -0 
216610000    317.84786   -159295.61   -159018.66      -154722    4.7880136  -0.44138841   -4.0681408    160.40945     2.005575   0.93852708    34.137903   -587.07036    45.381701 
216620000    316.75666   -159283.16   -159020.37   -154738.46    4.7850704  -0.46523059   -4.0632364    160.40702    1.9910218   0.94726097    34.325468   -498.34959   -29.059713 
216630000    312.60737   -159256.47   -158976.43   -154750.61    4.7915747  -0.47447978    -4.063015    160.42323    1.9728677   0.94820994    34.388155   -568.75192    52.387384 
216640000    311.89545   -159438.49   -159163.57   -154947.38    4.8085893  -0.47116579   -4.0559141     160.4313    1.9606809   0.92459318    34.392815   -426.68234    108.62607 
216650000     312.0909   -159325.33   -159033.72   -154814.88    4.8184963  -0.47785362   -4.0716037    160.44373    1.9617789   0.91302701    34.278187   -522.85981    70.621404 
216660000    318.12895   -159353.68    -159068.9   -154768.44    4.8225707   -0.4646298   -4.0984476    160.44041    1.9573048   0.92686385    33.963749   -492.27278   -5.8218144 
216670000    318.77785   -159251.22   -158992.91   -154683.68    4.8342371  -0.46961768   -4.1046186    160.45765    1.9636212   0.92026392    35.252953    -550.1324   -37.177382 
216680000    311.44634   -159422.72   -159136.76   -154926.63    4.8381774  -0.47891734   -4.1074201    160.46316     1.961734   0.91183742    35.529776   -447.76358    108.66365 
216690000    318.76782   -159312.25   -159048.47   -154739.37    4.8676017  -0.47212207   -4.0906844    160.48788    1.9521332   0.90527621    34.687164   -587.20243    59.606465 
216700000    321.11429   -159363.01   -159073.28   -154732.47    4.8791871  -0.47076157   -4.1037353    160.49229    1.9512438   0.90627157     34.62967    -539.5226    5.0955833 
216710000    309.22324   -159342.41   -159062.62   -154882.55    4.8716257  -0.48207521   -4.0882789      160.491    1.9567047   0.90060466    34.757566   -483.68576    97.872074 
216720000    318.66984   -159332.86   -159055.52   -154747.75    4.8772013  -0.49158215   -4.0884292    160.47191    1.9506182   0.88963213    34.634473   -589.61224    68.593018 
216730000     321.0075   -159329.62   -159061.46   -154722.09    4.8892251  -0.48226652   -4.1026258    160.47589    1.9309028   0.88259878    34.924988    -537.2267   -3.9402931 
216740000    316.39498   -159336.07   -159041.32    -154764.3    4.9004376  -0.49503189   -4.0884962     160.4539    1.9135125   0.87364621    35.008603    -479.5489   -23.122317 
216750000    317.28424   -159224.24   -158940.14    -154651.1    4.8919598   -0.4893674   -4.0747433    160.47057    1.9268947   0.89806666    35.185863   -576.21718    -35.74259 
216760000     317.8437   -159274.46   -159003.75   -154707.15    4.9029647  -0.49765996   -4.0968413    160.46536    1.9331684   0.90137224    34.893183   -597.30652    39.469613 
216770000    311.24519   -159297.57   -159022.85   -154815.44    4.9204538  -0.51394786   -4.0908173    160.46758     1.925364   0.92082283    34.727663   -549.48453    100.60759 
216780000    311.77789   -159370.88   -159083.91    -154869.3    4.9192357  -0.51988016   -4.1069108    160.45961    1.9330004   0.93545993    35.175142   -506.27632    109.46229 
216790000    315.96265   -159364.28   -159065.72   -154794.55     4.912019   -0.5314019   -4.1191951    160.45737    1.9316811   0.93364586    34.828965   -493.43213    22.152729 
216800000    313.40468   -159284.24    -158991.5    -154754.9    4.8961626  -0.51700437   -4.1232621    160.44461    1.9091267   0.94175923    35.111475   -527.29774    16.566614 
216810000    316.58718   -159375.52   -159092.77   -154813.15    4.9051752  -0.50677709   -4.1323295    160.44331    1.9055955   0.95735787    34.854618   -479.36524    30.430449 
216820000    319.66177   -159385.19   -159088.55   -154767.38     4.873303   -0.5245055   -4.1396115    160.44446    1.8974659   0.94555922    35.228168   -536.90888    37.966202 
216830000      314.815   -159289.59   -159001.36    -154745.7     4.868197  -0.50373595    -4.129227    160.42869    1.9102079   0.96650975    34.866609   -549.83153    25.171013 
216840000     318.4818   -159310.24   -159033.75   -154728.52     4.861349  -0.51148204   -4.1158675    160.41993    1.9155842   0.96262777    35.012319   -553.08265    14.862752 
216850000    315.48707      -159220   -158937.73   -154672.98    4.8570817  -0.54587633   -4.1306275    160.42276    1.9115101   0.97936847    34.779221    -610.1086     20.54841 
216860000    311.08229   -159344.39   -159062.94   -154857.74    4.8591305  -0.55829597   -4.1291104    160.43143    1.9137267   0.96152136    34.380823   -520.46159    111.68754 
216870000    315.98079   -159375.19    -159080.9   -154809.48    4.8724928  -0.54338929   -4.1359149    160.42064    1.9328544   0.94969983    34.774347   -562.44194    107.87483 
216880000    316.59085    -159270.2   -158966.05   -154686.38    4.8678539   -0.5367999   -4.1369374    160.42711    1.9473324   0.94989269    34.664291   -602.22109    24.936783 
216890000    316.83492   -159381.49   -159101.17    -154818.2    4.8708863  -0.54102964   -4.1407677    160.41389    1.9585912   0.95448771    34.471473    -538.8569    91.388454 
216900000    321.93665   -159286.89    -158990.8   -154638.87    4.8648193  -0.54003409   -4.1327582    160.42559    1.9767991   0.95238185    35.220449   -610.93275   -14.825056 
216910000    318.54807   -159346.54    -159062.3   -154756.18    4.8632118  -0.55641722   -4.1364247    160.41964    1.9846213   0.94267078     35.01723   -542.73727    29.053013 
216920000    312.26692    -159245.1   -158948.86   -154727.64    4.8585102  -0.55430706   -4.1461081    160.41873    1.9926394   0.90697739    34.280871   -592.19138    54.014951 
216930000    319.94532   -159299.62    -158995.2   -154670.19    4.8747131  -0.56809453   -4.1585392    160.42108    1.9996331   0.89353057    34.439536   -520.64949   -75.323916 
216940000    316.90265   -159324.07   -159032.64   -154748.76    4.8902424  -0.55109976   -4.1920881    160.42845    2.0021656   0.88894389    34.155372   -525.36714     8.850429 
216950000    311.45377   -159270.64   -158975.06   -154764.84    4.8761738   -0.5397298   -4.1817738    160.42938     2.024935   0.88315419    34.430596   -562.39516    66.095834 
216960000    318.33108   -159349.33   -159050.79    -154747.6    4.8488723  -0.54533037   -4.1855983    160.41504    2.0356984   0.89202554    34.203475   -615.97711    97.448663 
216970000    322.01989   -159319.98   -159023.97   -154670.92    4.8417588  -0.52809158   -4.1678709    160.41892    2.0326656    0.9041354    34.399787   -616.41847    22.222735 
216980000    320.86465   -159380.35   -159096.21   -154758.77    4.8479311  -0.52953941   -4.1655017    160.45695    2.0173478   0.90329601    34.711003    -532.4261    27.541811 
216990000    316.30808   -159473.04   -159183.66   -154907.81    4.8643026  -0.56337447   -4.1723329    160.45622    2.0049256   0.91980377    34.719129   -501.63607    142.26168 
217000000    313.98594   -159280.12   -158986.82   -154742.37    4.8774511  -0.56848233    -4.153073    160.46334    1.9950468   0.89830984    34.703467   -515.41864   -7.2570047 
217010000    315.79883   -159383.42      -159095   -154826.04    4.8660333  -0.56503345   -4.1464174    160.47436    1.9737503   0.88683351    34.471736   -517.06172    79.160648 
217020000    320.85689   -159322.75   -159038.61   -154701.28    4.8609475  -0.57998429   -4.1357448    160.47954    1.9789253   0.86785326    34.696385   -614.39902    47.993616 
217030000    310.46427   -159236.33   -158938.91   -154742.06    4.8607096  -0.57882232    -4.151927    160.47152    1.9748858   0.91095439    34.268447   -595.97839    77.702445 
217040000    313.27896   -159275.21   -158961.79   -154726.89    4.8588864  -0.58245015   -4.1298249    160.48809    1.9461257   0.91653392    34.620051   -556.72941    18.620577 
217050000     312.2209   -159274.16   -158968.24   -154747.65    4.8741126  -0.56452529   -4.1119006    160.50221     1.942961   0.91852304    34.853095   -629.56919     116.7194 
217060000    314.64913   -159410.29   -159106.42      -154853    4.8932126  -0.55478095   -4.1173576    160.51553    1.9464208   0.91247637    34.779272   -505.39762    91.727379 
217070000    319.68846   -159258.13   -158964.75   -154643.21    4.8879877  -0.55493224    -4.093123    160.53123    1.9390834   0.90547388    34.384103   -561.37183   -57.817696 
217080000     316.3448   -159322.11   -159035.84    -154759.5    4.8759755   -0.5649882   -4.0903417    160.53471    1.9563414   0.90800087    34.310507   -556.54413    53.129621 
217090000    323.22844    -159318.3   -159039.36   -154669.97    4.8891124  -0.57340156    -4.117634     160.5442    1.9500536   0.92154667    34.474924   -657.15237    59.019441 
217100000    315.06392   -159357.58   -159050.04   -154791.02    4.8685533  -0.57563257   -4.1131379    160.53987    1.9440377   0.91012709    34.697305     -576.721    101.26238 
217110000    316.82951   -159365.06   -159079.49   -154796.59    4.8594538  -0.59783146   -4.0989233    160.52806    1.9249306   0.90391805    34.568458   -561.25683     89.77267 
217120000    311.48013    -159401.8   -159118.36   -154907.78    4.8479938  -0.59226011   -4.0672075    160.52285    1.9157891   0.91403902    34.115532   -510.92748    149.04553 
217130000     317.9678    -159306.6    -159019.4   -154721.12     4.865518  -0.57926283   -4.0804795     160.5176    1.9350417   0.91322726     34.30233   -609.11777    63.854236 
217140000    320.57623   -159273.88   -158988.15   -154654.61    4.8602828  -0.58530576   -4.0609713    160.48174    1.9382973   0.91539071    34.668578   -628.29914    15.535439 
217150000    316.38859   -159268.44   -158971.06   -154694.12    4.8667386  -0.60644874   -4.0766239    160.49331     1.952884   0.93703357    34.772753   -563.69551   -7.4149319 
217160000    321.07606   -159264.64   -158975.95   -154635.65    4.8624926   -0.6285989    -4.078012     160.4924    1.9370988   0.93242158    34.642327   -632.97981    3.7471378 
217170000    312.33933   -159292.78   -158994.49   -154772.29    4.8659665  -0.62716542   -4.0615121    160.49041    1.9267775   0.91773109    35.253992   -498.06186     6.154166 
217180000    314.16339   -159287.14   -159005.76    -154758.9    4.8688334  -0.62625728   -4.0633385    160.48229    1.9335162    0.9315576    35.313599   -530.51729    18.922471 
217190000    321.62916   -159401.54   -159087.99   -154740.22    4.8813924  -0.61379951   -4.0565294    160.49889    1.9286183   0.93171441    35.196648   -545.61059    22.869813 
217200000    319.79271   -159402.12   -159101.04   -154778.09    4.9035731  -0.63167722   -4.0624794    160.47951    1.9435243   0.92533267    34.330392   -583.53204    95.979709 
217210000    319.86127   -159258.54   -158947.52   -154623.64    4.8951278  -0.62623897   -4.0750419    160.48597    1.9447797   0.91810222    34.379737   -699.38166    55.883763 
217220000     311.4824   -159275.63   -158983.35   -154772.74    4.9031434  -0.62851132   -4.0844434    160.50987    1.9490824   0.92412182     33.97182   -517.88125     21.59103 
217230000    316.12157   -159331.76   -159029.72    -154756.4    4.9078232  -0.62598876   -4.0887412    160.52249    1.9768693   0.91327122    34.378076   -522.69252    14.958977 
217240000    317.71822   -159359.17   -159044.42   -154749.52     4.902366  -0.59599728   -4.0790232     160.5331    1.9728077   0.91998613    34.768169   -549.82075     33.75595 
217250000    315.65005   -159368.74   -159056.93   -154789.98    4.8918706  -0.58753628   -4.0700646    160.53353    1.9689428   0.92646879    35.106426   -559.43212    82.466289 
217260000    316.86113    -159311.7    -159008.7   -154725.38    4.8781149  -0.56902132   -4.0517406    160.54252    1.9759691   0.91385923    35.800942   -637.59242    95.047833 
217270000    316.59534   -159287.45   -158993.02   -154713.29    4.8828463  -0.56556592   -4.0680283    160.53633    1.9709279   0.89471221    34.516597   -563.91243    12.425021 
217280000    316.66118   -159399.93    -159082.6   -154801.98    4.8870406  -0.57774235   -4.0641764    160.52081    1.9832919   0.90501514    34.291609   -549.91808    84.175869 
217290000    320.19078   -159250.48   -158965.21   -154636.88    4.8652618  -0.57591713   -4.0599281    160.52701    1.9882708   0.90056314    34.444196   -637.14655    8.5529961 
217300000    320.79709   -159240.68   -158951.18   -154614.66     4.884271  -0.56199454   -4.0671589    160.52378     1.993319   0.91241797    34.402149   -651.69882    3.1792516 
217310000    316.61417    -159215.1   -158890.82   -154610.84    4.8900381  -0.56369426    -4.070791    160.50603    1.9920509   0.90296462    34.556474    -642.9355   -12.431458 
217320000    314.47355   -159491.87   -159201.62   -154950.57    4.8770665  -0.55055029    -4.068039    160.52979    2.0082235   0.89482396    34.262791   -454.38503    139.05913 
217330000    317.98919   -159304.25   -158995.29   -154696.72    4.8922622  -0.54556425    -4.068728    160.52059    1.9848416    0.9048375    34.669797   -566.94643    3.0573164 
217340000    313.47961   -159361.17   -159061.09   -154823.48    4.9030552  -0.54406998   -4.0735445    160.51903    2.0107632   0.91550253    34.569008   -519.66629    78.564259 
217350000    315.05942   -159235.91   -158910.95   -154651.98    4.9285299  -0.54557683    -4.081837    160.50819    1.9941806   0.91856555    34.647613   -551.32972    -58.97916 
217360000    311.97109   -159245.96   -158939.77   -154722.55    4.9394441  -0.52572015   -4.0676565    160.50291    1.9940551   0.90043368    34.788448   -624.02517    81.087133 
217370000    316.37256   -159445.26   -159155.99   -154879.27    4.9188965   -0.5046457   -4.0565382     160.5054    2.0002578   0.88091437    34.531184    -518.4484    129.41236 
217380000     312.1319   -159341.17   -159030.26   -154810.87    4.9222315  -0.51433861   -4.0503226    160.52831    2.0187708   0.87625927    34.711629   -607.74843    153.67221 
217390000    312.78751   -159409.26    -159115.4   -154887.15    4.9325664   -0.5014546    -4.032753    160.50372    2.0244999   0.85625489    34.543963   -519.51205    141.63668 
217400000    315.43745   -159390.92   -159078.17    -154814.1     4.918845  -0.47229631   -4.0155698    160.51042    2.0361546   0.83143761    34.668593   -567.38559    115.87121 
217410000    318.63818    -159351.2   -159051.03   -154743.69    4.9156718  -0.48053517   -4.0196813    160.51874    2.0494603   0.85674977    34.283705   -649.51497    128.58326 
217420000    312.91176   -159461.14   -159146.86   -154916.93    4.9177522  -0.48219838   -4.0339888    160.52872    2.0591136   0.83663066    34.187771   -482.90364    130.03657 
217430000     315.6658   -159404.68   -159115.58   -154848.42    4.9078478  -0.45368422    -4.048278    160.53537    2.0707261   0.84262009    34.148688   -514.49522    93.411175 
217440000    325.46983    -159350.3   -159041.51   -154641.81    4.9125228  -0.44370601   -4.0574132    160.53946    2.0769574    0.8403783    34.525482    -614.8204     -8.27804 
217450000    320.41044   -159366.83    -159073.9    -154742.6    4.9151215  -0.42676995   -4.0292686    160.53363    2.0890599   0.85071498     34.81737   -539.02924    15.048622 
217460000     316.1342   -159354.61   -159063.34   -154789.85    4.8962615   -0.4301247   -4.0245328    160.52539      2.10246   0.85213163    34.373199   -623.68839    148.32565 
217470000    318.89788   -159276.85   -158978.17   -154667.32    4.8980891  -0.44595676   -4.0211955    160.51308    2.1167444   0.86635595    34.383247   -646.09874    50.090023 
217480000    322.21091   -159345.01   -159055.86   -154700.22    4.9016288  -0.42468296   -4.0381297    160.50124    2.0808219   0.85913924     34.58218   -592.56052    27.583173 
217490000    322.01905   -159349.73   -159065.94   -154712.89    4.9146836  -0.44198604   -4.0278117    160.48254     2.065066   0.85528118    34.808972   -616.15566    64.978337 
217500000    320.72023   -159330.84   -159037.54   -154702.05    4.9285254  -0.43088681   -4.0363489    160.48072    2.0684754   0.84954311    34.667903   -634.96862     70.21475 
217510000     311.4758   -159418.83   -159116.08   -154905.55     4.930291  -0.41692173   -4.0379944    160.48011    2.0473597   0.84282706    34.916138   -496.95461    136.17265 
217520000    326.12747   -159281.41   -158992.17   -154583.58    4.9366361  -0.41962095   -4.0548865    160.49396    2.0529378   0.84703104    35.238435   -646.33267   -34.880857 
217530000    313.28241   -159269.22   -158979.82   -154744.88    4.9471081  -0.42905087   -4.0357406    160.50749    2.0422766   0.83913607    35.148528   -569.98889    54.995506 
217540000    314.91513    -159313.2   -159016.15   -154759.13    4.9573756  -0.43461942   -4.0450697    160.50337    2.0271023   0.84179753     34.96591   -645.50419    139.18774 
217550000    310.88601   -159316.88   -159036.84   -154834.29    4.9572005  -0.41885791   -4.0361208    160.49748    2.0312627   0.82595814    34.721338   -533.87605    102.29154 
217560000    319.58048   -159325.32   -159028.44   -154708.36    4.9746343  -0.42293062   -4.0382489    160.52587     2.010007   0.82168113    34.822681   -559.13587    4.3222956 
217570000    313.89918   -159359.19   -159066.47   -154823.19    4.9654099  -0.42760788   -4.0451564    160.52709    2.0051056   0.81669336    35.142114   -579.97062    137.75843 
217580000    307.52752   -159267.01   -158976.28   -154819.13    4.9476641  -0.41908981   -4.0525031    160.53847    2.0036328   0.81028534    34.421368   -560.10833    116.26475 
217590000    319.99817   -159240.43   -158953.57   -154627.84    4.9597557  -0.41564565   -4.0594701    160.53993    1.9838508   0.80111276    33.957693   -681.09951    45.692074 
217600000    315.90826   -159324.53   -159026.18   -154755.74    4.9428625  -0.39789094   -4.0589259    160.54589    1.9788794   0.79509656    33.887886   -517.37292    10.773216 
217610000    314.45417   -159346.51   -159056.52   -154805.74    4.9295491  -0.39603488   -4.0639469    160.55593    1.9894481   0.78348911    34.799629   -558.52795    95.788651 
217620000    318.74035   -159274.23   -158981.69   -154672.97    4.9260033  -0.41603671    -4.080473     160.5455     1.986571   0.78111594    34.883996   -642.10722    49.317296 
217630000    311.11348   -159316.44   -159003.39   -154797.76    4.9116032  -0.40657072   -4.0887772    160.55108    2.0058908   0.77770148    34.708022   -525.38913    58.580298 
217640000     321.7536    -159328.1   -159031.91   -154682.45    4.9238321  -0.43644045   -4.0845399    160.55982    2.0059049   0.77787315    34.559883   -601.02831    17.038926 
217650000    322.69858   -159326.52   -159041.48   -154679.25    4.9289202  -0.44767557   -4.1045196     160.5497    1.9870418   0.77881114     34.41305   -655.22053    68.048398 
217660000    312.71952   -159355.09   -159065.26   -154837.93    4.9362118  -0.44920614   -4.0966558    160.57034    1.9837177   0.78647152    34.581647   -575.43494    149.36934 
217670000    319.67362   -159329.94   -159038.21   -154716.87    4.9523547  -0.44618473   -4.1175441    160.58174      1.97635   0.77389621    34.998589     -684.115    130.28065 
217680000    317.19078   -159395.71   -159087.82   -154800.04    4.9538287  -0.45083681   -4.1090325    160.58557    1.9884012    0.7653749    34.899526   -533.58294    66.261186 
217690000    317.50906   -159292.63   -158994.18    -154702.1    4.9488492  -0.43619646   -4.1118267    160.59244    2.0020904   0.76141262    35.268335    -637.4664    77.305859 
217700000     319.1502   -159248.03    -158941.4   -154627.14    4.9627148  -0.46637017   -4.1192607    160.59052    2.0180772   0.77081167    34.807237   -705.19862    69.650801 
217710000    316.43339   -159166.61   -158852.39   -154574.85    4.9600276  -0.46151399   -4.1134083     160.5928    2.0357522   0.77696809    34.653834   -683.11099   -6.1983461 
217720000    314.43428   -159268.57   -158962.15   -154711.64    4.9548347  -0.48634723   -4.1074788     160.5869    2.0284445   0.76410173    34.930976   -630.18867    78.042067 
217730000    322.70959   -159286.38   -158987.27   -154624.89    4.9631586  -0.48954581   -4.1124201    160.58419     2.012987   0.77306707    34.934532    -651.7066    11.007484 
217740000    319.11091   -159250.58   -158940.14   -154626.41     4.938283  -0.50192261   -4.1161981    160.58605    2.0092841   0.78770328    34.645017   -689.87025    55.161544 
217750000    326.58979   -159262.63   -158964.74    -154549.9    4.9258881   -0.4973337   -4.1168797    160.58692    1.9962096   0.79423487    34.213793    -726.7018    11.410443 
217760000    317.06251   -159424.36   -159117.54    -154831.5    4.9262234  -0.51477876   -4.1182859    160.57306    1.9929236   0.78399724    34.622491   -530.74127    93.148347 
217770000    312.93017   -159407.66   -159110.37   -154880.19    4.9155412  -0.53939942   -4.1222425    160.57842    1.9903093   0.78681014    34.493697   -598.76755    212.59019 
217780000    318.31842   -159275.87   -158983.65   -154680.63    4.9095273  -0.54419505   -4.1020171    160.56743    1.9762048   0.77932397    34.591652   -679.16044    96.303626 
217790000    322.85789   -159217.04    -158913.8   -154549.41    4.8989205  -0.54841845   -4.0759144    160.55975    1.9772705   0.76640719    33.765542   -743.67245    27.291399 
217800000    314.92425   -159393.34      -159085   -154827.86     4.891712  -0.53556639   -4.0815026    160.55465    1.9872928   0.78735625    33.834789   -608.28033    169.53991 
217810000    314.17935   -159304.43   -159001.86    -154754.8    4.9009055  -0.54523648   -4.0691675     160.5457    1.9906878   0.78644583    34.138969   -627.99717    113.35841 
217820000    319.43041   -159325.69   -159023.46   -154705.41    4.9016434   -0.5658067   -4.0621771    160.53267    1.9717827   0.79370384    34.329924   -638.26075    79.674725 
217830000    310.00898    -159339.8   -159025.56   -154834.86    4.9020207    -0.563448   -4.0521391    160.52645    1.9694888   0.79692441    33.968053   -560.41133    130.93878 
217840000    316.93249   -159437.34    -159149.3   -154865.02    4.9171814  -0.57101021   -4.0372725    160.54906     1.968874   0.78477287    34.470219   -564.13974    162.01509 
217850000    319.98287   -159367.68   -159064.67   -154739.15    4.9350828  -0.59304361   -4.0598235    160.56007    1.9794825    0.8040612    34.693162   -638.73884    112.28562 
217860000    316.88126   -159255.14   -158945.94   -154662.35    4.9308545  -0.58402175   -4.0738487    160.56052    1.9948321   0.80047615    34.580109   -711.25771    103.62935 
217870000    322.42753   -159276.71   -158987.21   -154628.64    4.9348136    -0.581045    -4.075287    160.54283    1.9820099   0.79912923    34.374875   -670.46114    31.480082 
217880000    315.20804   -159255.03   -158960.36   -154699.38    4.9632995  -0.58639363   -4.0706495    160.54757    1.9660728   0.83299232    34.211955   -649.12127    86.210819 
217890000    324.52042   -159277.08   -158978.01   -154591.15    4.9725834  -0.60532877   -4.0844887     160.5421    1.9744181   0.83634429    34.778582   -692.86245    16.587371 
217900000    315.01692   -159234.61   -158951.42   -154693.03    4.9805561  -0.60843824   -4.1120219    160.55204    1.9426375   0.83460439     35.11629   -687.62087    116.84015 
217910000     320.0359   -159340.34   -159039.96   -154713.73    4.9741627   -0.6051318   -4.0896558    160.56485    1.9476387   0.82941875    34.705469   -633.75172    80.765739 
217920000     319.2977   -159266.05   -158984.07   -154667.81    4.9704922  -0.59333766   -4.0928211    160.56628    1.9364779   0.84325234    34.489139   -661.20499     65.64426 
217930000     324.2655   -159383.79   -159113.45   -154730.04    4.9799577  -0.57783581   -4.0936635    160.57091    1.9315418   0.83985859    34.181111   -632.02708    95.010507 
217940000    322.16805    -159367.5   -159047.21   -154692.15    4.9772739  -0.56946872    -4.120355    160.55957    1.9563344   0.85160474    34.513215   -571.01821  -0.35850637 
217950000    319.60971    -159237.5   -158943.04   -154622.57    4.9665703  -0.54972336   -4.1054509    160.54308    1.9554813   0.84949713    34.607125   -671.72691    29.361287 
217960000    318.19343   -159309.97   -158989.12   -154687.79    4.9517468  -0.53534771   -4.0745038    160.54591     1.948034   0.85173494    34.367422   -683.22646     106.1672 
217970000    324.05201   -159362.13   -159057.64   -154677.11    4.9403673  -0.54365179   -4.0691144    160.53291    1.9343205   0.85039999    34.711024   -654.78804     62.50157 
217980000    320.69203   -159221.17    -158914.1   -154578.99    4.9525473  -0.53874401   -4.0839714    160.52786    1.9158376    0.8384895    34.704816   -647.29112   -36.842213 
217990000    319.11352    -159312.8   -159012.49   -154698.72    4.9532531  -0.53247436   -4.0673612    160.53272    1.9177498   0.82841055    33.896943   -687.17643    119.54773 
218000000    312.65196   -159332.29   -159029.34   -154802.92    4.9692064  -0.54646056   -4.0651579    160.53695    1.9244842   0.85804068    34.424919    -601.7201    137.21581 
218010000      314.245   -159259.02   -158946.38   -154698.42    4.9819356  -0.54604174   -4.0637572    160.52975    1.9351848   0.88276351    34.234575    -619.9928    52.192645 
218020000    315.56546   -159353.42   -159060.83   -154795.02    4.9654265  -0.53323892   -4.0771429    160.51011    1.9401477   0.88889022    34.447764   -637.89715    164.68662 
218030000    314.49275   -159329.83   -159023.78   -154772.48    4.9508531  -0.52864976   -4.0680255    160.52786    1.9351613   0.87496598    34.229091   -605.68047    109.96399 
218040000     322.1513   -159287.28   -158997.01   -154642.17    4.9577664  -0.54036293   -4.0881445    160.52831    1.9291752   0.88689961    34.310449   -697.49966    73.145173 
218050000    317.69808   -159305.31   -159009.51   -154714.87    4.9500193  -0.52997637   -4.0880504    160.51016    1.9178633   0.87124325    34.368829   -578.46049    29.544722 
218060000    318.44793   -159222.99   -158908.89   -154604.12    4.9418762   -0.5123571   -4.0720012    160.52382    1.9354547   0.88155576    34.429182   -680.30478    20.805348 
218070000    316.68473   -159340.69   -159035.67   -154754.73    4.9079301  -0.49707546   -4.0728348    160.49804    1.9378534   0.89146961     34.21546   -588.56521    79.558632 
218080000    316.69261   -159291.09   -159002.32   -154721.27    4.8978058  -0.49916344   -4.0835379    160.50354    1.9234392   0.88535723    34.577934   -638.26374    92.423884 
218090000    313.22158   -159384.93   -159083.37   -154849.25    4.8826475  -0.51727119   -4.0844061    160.52595    1.9190621   0.87390367    34.503124   -526.15607    110.17939 
218100000    314.28704   -159297.01   -158998.03   -154749.51    4.8737305  -0.49808375   -4.0720757      160.515    1.9363189   0.87708379    34.767001   -607.40659    91.993387 
218110000    315.27662   -159353.36   -159066.53   -154804.63    4.8798994  -0.47683915   -4.0733407    160.51977    1.9312625   0.88572024    34.732155   -596.09768    134.43507 
218120000    313.70107   -159339.91    -159059.4    -154818.8    4.8671533    -0.460468   -4.0579763    160.50066    1.9342262   0.87288162    34.653396   -537.81636    91.579236 
218130000     322.2996   -159430.92   -159133.97   -154777.14    4.8684239  -0.48436993   -4.0461447    160.49612    1.9251985    0.8715511    34.501371   -639.86979    153.18584 
218140000     317.1363    -159244.1   -158924.13   -154637.09    4.8721138  -0.48419261   -4.0499659    160.49227    1.9189346   0.89470792    34.635847   -654.70625    27.412393 
218150000    325.94757   -159365.79   -159062.57   -154656.42    4.8677404  -0.48862729   -4.0699029    160.48418    1.9421892   0.90441066    34.611035   -679.02772    73.309766 
218160000    312.01677   -159382.46   -159062.08   -154844.24    4.8694134  -0.49503647   -4.0597729    160.49009    1.9454684   0.92840613    34.841415   -471.89386     49.44302 
218170000    321.43792   -159427.66   -159136.07   -154790.89    4.8711232  -0.49638814     -4.09162     160.4723    1.9516074    0.9243252    34.560315   -611.74021    133.28921 
218180000    315.48915   -159403.65   -159084.43   -154819.65    4.8659817  -0.49027417   -4.0943108    160.48543    1.9683111   0.93071909    34.705375   -529.69246    81.842526 
218190000    316.44633   -159261.26   -158958.63   -154680.92    4.8752648  -0.50123213   -4.1087037    160.46226     1.978843   0.95858734    34.834681   -621.82205    38.482335 
218200000    314.12502   -159374.75    -159062.2   -154815.87    4.8981909   -0.4849378   -4.1080378    160.45503    1.9804621   0.96800115    34.893493   -557.63561    108.72135 
218210000    316.41802   -159324.54   -159003.28   -154725.95    4.8966135   -0.4904854   -4.1075696     160.4498    1.9780367   0.94876391    34.598027   -661.47007    119.81034 
218220000    318.23381   -159258.09   -158961.36   -154659.49    4.9111369  -0.50365845   -4.1155489    160.46487    1.9832438   0.95235012    34.349899   -676.70127    72.344928 
218230000    317.46353   -159300.79   -158983.16    -154691.7    4.9027482  -0.49761172   -4.1196418    160.45448    1.9738049   0.95148906    34.881809   -598.23857    23.295104 
218240000    319.86593      -159325   -159003.57   -154679.63    4.8806681  -0.50421907   -4.1272345     160.4465    1.9954155   0.93281886    35.020515   -666.16133    78.524786 
218250000     319.6488   -159267.29   -158943.29   -154622.29    4.8838346  -0.49175855    -4.132674    160.44253    2.0104124   0.93039856     34.97809   -684.24734      41.7546 
218260000    318.66035   -159314.32   -159002.11   -154694.46    4.8905304  -0.46156901   -4.1320299    160.43358     2.022126   0.92428853    34.517191   -690.78878    119.60273 
218270000    322.69651   -159397.58    -159080.9    -154718.7    4.9116281  -0.46320615   -4.1423376    160.42393    2.0525464   0.93462629    34.872416   -615.43159    69.348598 
218280000    322.22966    -159332.6   -158998.58   -154642.69    4.9125638  -0.47035855   -4.1426112    160.41497    2.0478187   0.91790143    34.260339    -679.2508    57.890345 
218290000    314.05512    -159326.7   -159004.77   -154759.38    4.9085204  -0.45059135   -4.1542617    160.40727    2.0247936   0.92565414    35.057053   -657.03095    153.71539 
218300000    320.81767   -159351.21   -159034.27   -154697.46     4.906875  -0.45254835   -4.1458649     160.4034    2.0085198   0.92790917    34.736973   -628.88016    60.650662 
218310000    313.69731   -159403.01   -159091.09   -154850.53    4.9219455  -0.45848803   -4.1288865    160.38673    1.9965357   0.93801679    34.494694   -512.93595    96.629404 
218320000    313.51996   -159347.16   -159038.06    -154799.9    4.9316574  -0.46052825   -4.1158144    160.40039    1.9919472   0.93752206    34.820697   -582.34818     116.7337 
218330000    317.73456   -159261.97   -158944.72   -154649.59    4.9231099  -0.47086945   -4.0978826    160.39264    2.0003214    0.9314521    34.509476   -693.16553    80.899655 
218340000    320.18489   -159321.27   -159021.72   -154693.47    4.9164948  -0.45116214   -4.0874664    160.37061    2.0034792   0.92047893    34.664441   -655.55222    80.646308 
218350000     315.5512   -159367.12   -159048.98   -154783.37     4.941339  -0.45087957   -4.0836765    160.37671    1.9871496   0.90415017    34.701411   -550.65782     65.71358 
218360000    316.20084   -159267.02   -158954.92   -154680.52    4.9413766  -0.44390397   -4.1025649    160.36505    1.9787591   0.90238872    34.634494   -648.82173    63.855745 
218370000    324.34592   -159417.86   -159130.33   -154745.83    4.9510933  -0.41194233   -4.1039909    160.36121    1.9583642   0.90346841    34.909292   -642.61137    121.13462 
218380000    313.57227   -159195.63   -158883.05   -154644.18     4.933112   -0.4139107   -4.1018347    160.36027    1.9585524   0.91213122    34.960583   -688.59139    67.165885 
218390000    316.23447   -159291.73   -158982.65    -154707.8    4.9091979  -0.39936238   -4.1137656    160.34487    1.9718825   0.92492011    34.931225   -649.66494    93.341163 
218400000    320.32713   -159398.04   -159104.17   -154773.99    4.9059029  -0.40290442   -4.1031845    160.36569    1.9599495   0.91763272    34.687086   -618.80936    125.13888 
218410000    315.34434   -159415.02   -159100.82      -154838    4.8946649  -0.41728272   -4.0870069    160.38553     1.950184   0.92034402    34.921638   -580.41581    152.68078 
218420000     318.9682   -159362.33   -159029.78   -154717.98    4.9058175  -0.42766933   -4.0644076    160.39523    1.9460335   0.90764389    34.945755   -702.44383    155.15306 
218430000    318.80689   -159423.67   -159133.17   -154823.55    4.8918082  -0.41293485   -4.0681945    160.37781    1.9694429   0.89231017    35.181462   -524.40224    80.692162 
218440000    317.14941   -159322.18   -159005.11   -154717.89    4.8846284  -0.43443071   -4.0643701    160.37801    1.9501005   0.91373455    35.794573   -599.92717    51.922593 
218450000     317.4918   -159361.79   -159055.85      -154764    4.8658597  -0.44117943   -4.0653458    160.38731    1.9661915    0.9255218    34.585484   -595.96103    95.060357 
218460000    316.97121   -159265.94   -158951.72   -154666.91    4.8783871  -0.42074894   -4.0642091    160.37895    1.9723479   0.93415005    34.959938   -696.60287    97.678173 
218470000    318.89112   -159289.29   -158977.24   -154666.48    4.8783166  -0.42730517    -4.073298     160.4061    1.9662506   0.91593658    34.909747   -627.35612    30.445474 
218480000    324.04598   -159416.06   -159110.68   -154730.24    4.8657258  -0.42180216   -4.0697484    160.39559    1.9554433   0.91551934    34.778182   -658.68113     121.8039 
218490000    316.32146   -159321.69   -159026.54   -154750.51    4.8626306  -0.41949763   -4.0613515    160.38472     1.952768   0.91281387     34.63818   -523.24892    11.713918 
218500000    314.01653   -159357.73   -159045.71   -154800.85    4.8733085  -0.42974862   -4.0480299    160.37625    1.9449615   0.91432254    35.722065   -581.43575    113.91366 
218510000     317.8555   -159275.46   -158955.78   -154659.02    4.8637771  -0.45454792   -4.0512215      160.368    1.9570943   0.89141121    35.446253   -648.12309    42.732931 
218520000    320.53255   -159368.58   -159065.46   -154732.51    4.8422277  -0.45934643   -4.0757609    160.36058    1.9504283   0.89130426    35.032949   -650.72345    116.57178 
218530000     319.0316   -159264.34    -158961.6   -154648.94    4.8315934  -0.47646739   -4.0820785    160.35377     1.944501   0.91732658    34.789142   -645.63151    24.131174 
218540000    318.65675   -159401.31   -159093.19    -154785.6    4.8229921  -0.47105543    -4.071406    160.34558    1.9350875   0.91991587    34.699274   -625.99348     145.1442 
218550000    316.95938   -159355.97   -159043.71   -154759.06    4.8081593  -0.47034469   -4.0950906    160.33521    1.9238531   0.91835325    35.083166   -588.17222    79.905736 
218560000    322.92581   -159367.68   -159048.89   -154683.59    4.7893613  -0.46089218   -4.0810655    160.33113    1.9100126   0.92111098    34.537765   -636.72665    57.454031 
218570000    324.13042   -159373.04   -159039.69   -154658.11    4.8043309  -0.45876521   -4.0740425    160.32277    1.9118501   0.91655404    34.890508   -726.99659    121.58846 
218580000    320.81022   -159403.39   -159071.23   -154734.53    4.8076581  -0.44763249   -4.0766329    160.32021    1.9244154   0.90283351    34.848136   -617.27918    81.137981 
218590000    324.47467   -159353.56   -159039.82   -154653.58    4.8003795   -0.4449391   -4.0863016    160.33117    1.9348154   0.90305239     35.13191   -623.35997    10.170279 
218600000    314.94306   -159330.66   -159025.97   -154768.57    4.8062019  -0.44931031   -4.0910543    160.34424    1.9324451   0.89358052    34.638319   -603.90559    107.23592 
218610000    319.37453   -159330.69   -159025.55   -154708.25    4.8018309  -0.42404308   -4.0978662    160.33293    1.9387147   0.89868232    34.786456   -577.34633    25.479577 
218620000    316.42814   -159449.76   -159146.34   -154868.87    4.7966703  -0.42799659   -4.0960059    160.34382    1.9428915    0.8917749    35.120742     -538.587    140.26844 
218630000    324.18269   -159261.37    -158967.9    -154585.6    4.8051337    -0.410545   -4.1145952    160.35639    1.9372747   0.88165372     34.66104   -720.69749    37.865293 
218640000    315.80087   -159300.37   -158977.67   -154708.69    4.8035068  -0.40430721    -4.099876     160.3593    1.9524062   0.87326593    34.519495   -693.71755     136.1706 
218650000    319.44542   -159285.72   -159001.82   -154683.57    4.8119133  -0.39386882   -4.1005731    160.36879    1.9443423   0.86268749    34.694399   -681.57749    99.148066 
218660000    313.75098   -159315.52   -159014.54   -154773.26    4.8182725  -0.40659437   -4.0835197    160.38686    1.9495587   0.83899064    34.844575   -597.57547    101.31688 
218670000    315.40874   -159384.69   -159073.13   -154809.44    4.8376199  -0.39961324   -4.0827637     160.3913    1.9645217   0.83416246    34.669142    -570.7949    111.36866 
218680000     317.7851   -159347.64   -159046.49   -154750.68    4.8189929  -0.38213242    -4.084458    160.40262    1.9447791   0.82867939    34.418248   -590.78838    75.454328 
218690000    321.49577   -159361.05   -159056.95   -154710.98     4.800179  -0.36838415   -4.0931226    160.40746    1.9367176   0.82799392    34.250947   -610.66405    57.008287 
218700000    316.34336   -159370.63   -159051.25   -154774.92    4.8087175  -0.34667021   -4.0750659    160.41027    1.9317039   0.80815175      34.4387   -667.73361    176.88217 
218710000    319.83712   -159284.08   -158974.52   -154650.97    4.8131287  -0.33604334   -4.0707431     160.4109    1.9286574   0.82732964    34.485148   -686.49262    73.730697 
218720000    312.03071   -159300.56   -158989.96   -154771.94    4.8178984  -0.30730849   -4.0755313    160.39127    1.9263911   0.83988808    34.298612   -607.01633    114.05459 
218730000    329.35037      -159437   -159138.73   -154686.58    4.8037236  -0.28934031    -4.076245     160.4005    1.9194426   0.84256875    35.414305   -582.10443    1.7580106 
218740000    317.58345   -159308.32   -159003.59   -154710.51     4.789755  -0.30021843   -4.0833165    160.39958    1.9221469   0.84700808    34.995809   -600.06246    47.999334 
218750000    314.31356   -159319.36    -159018.8   -154769.92    4.7855133  -0.29597919   -4.0829801     160.3924    1.9162304   0.83442944    35.050357   -558.03038    64.094295 
218760000    319.04659   -159361.45   -159049.57    -154736.7    4.7813004  -0.27744352    -4.094355    160.38648    1.9165997   0.83339301    34.870415   -617.98045    87.776764 
218770000    319.96487   -159248.23   -158952.15   -154626.87    4.7797887  -0.29236359   -4.1055953    160.37542    1.9260376   0.82497022    35.213401   -726.80537    89.570193 
218780000    316.75327   -159280.46   -158992.54   -154710.67    4.7753316  -0.29486449   -4.1042704    160.38404    1.9085788   0.83107378    35.081856   -612.99579    57.442088 
218790000    319.51858   -159374.05   -159091.25      -154772    4.7628598  -0.31105266   -4.1114865    160.37039    1.9090845   0.84004579    35.016327   -613.64338    118.70684 
218800000    318.15913   -159292.99   -158983.84   -154682.98    4.7480867  -0.32533991   -4.1257263    160.34972    1.9242423   0.84766655     35.37372    -716.5246    132.75196 
218810000    317.40221   -159330.23   -159040.47   -154749.84    4.7582411   -0.2939903   -4.1156699    160.34378    1.9363031   0.82879486    35.330742    -614.9033    99.075615 
218820000    318.19986   -159374.44   -159075.31   -154773.89    4.7601701  -0.29109096   -4.1138472    160.35635    1.9273438   0.83386313    35.470957   -636.48999    144.08768 
218830000     313.9217   -159427.42   -159148.31   -154904.73    4.7707148  -0.30130051   -4.1200925    160.34289    1.9318451    0.8279838    35.208407   -524.65465     162.3943 
218840000    318.83012   -159307.95   -159010.78   -154700.84    4.7939685  -0.31682765   -4.1327746    160.35707    1.9376421    0.8270116    35.537904   -672.99347    108.35346 
218850000    320.74129   -159322.11   -159038.61   -154702.84    4.8054147  -0.31563901   -4.1343795    160.36989    1.9456861   0.79781427    35.074395   -610.57083    46.715328 
218860000    315.03564   -159359.24   -159059.99   -154801.35     4.800904  -0.31239565   -4.1451401    160.35814    1.9459122     0.808358    35.239005   -533.37393    67.680779 
218870000    323.69848   -159299.79   -159013.32   -154637.57    4.7918745  -0.31635612   -4.1472583    160.36307    1.9488273   0.78800148    34.802945    -708.5638    81.642312 
218880000    317.67375   -159281.33   -158984.95   -154690.64    4.7840752  -0.29725759   -4.1394149    160.38451     1.940995   0.79206359    34.407113   -605.49649    32.082978 
218890000    316.73498   -159390.18   -159083.74   -154802.13    4.7467559  -0.28866368   -4.1428589    160.38848    1.9236321   0.77971332    34.503419   -638.04587    170.95218 
218900000    318.67987   -159334.87   -159042.56   -154734.66    4.7560829    -0.305963   -4.1423634    160.40266    1.9253972   0.78605582    34.256634    -626.3512    96.073796 
218910000    312.31473   -159244.58   -158943.31   -154721.44    4.7472593  -0.33623982   -4.1511287    160.38983     1.954646   0.77046259    34.054662    -650.4756    112.40072 
218920000    315.71623   -159423.31   -159136.39   -154868.54    4.7516671  -0.32892965   -4.1574714    160.40372    1.9532519   0.77511701    34.189677    -548.2968    150.62581 
218930000    316.97928    -159384.9   -159087.21   -154802.29    4.7266411  -0.31349897   -4.1480226    160.39596    1.9540643   0.79476891     34.56781   -645.52327    180.80086 
218940000    316.01198   -159377.55   -159088.05    -154816.2    4.7325456  -0.31064929   -4.1545487    160.39229    1.9563164   0.79146366    34.978836   -581.53852    133.04216 
218950000    312.10473   -159416.39   -159127.08   -154908.05     4.738252  -0.31491594   -4.1526399    160.38545    1.9801167   0.80610283    34.167877   -563.46507     203.5128 
218960000    319.53722   -159396.72   -159100.56   -154781.06    4.7370291  -0.31471759   -4.1628513    160.36823     1.986637    0.8208656    34.502781   -553.28633    66.530633 
218970000    313.21087   -159262.06    -158976.4   -154742.43    4.7355923   -0.3094162   -4.1707306     160.3428    2.0109159   0.82735722    34.918968   -691.99926    171.05061 
218980000    320.08814   -159400.39   -159115.69   -154788.74    4.7476073  -0.31104655    -4.163706    160.34709    2.0057762   0.81152759    35.230717   -566.64055    89.316931 
218990000    319.64343    -159302.6   -159013.01   -154692.08    4.7575192  -0.30925488   -4.1644439    160.34122    2.0022556   0.82104927     35.32112   -679.44334    107.25034 
219000000    322.74832    -159264.7   -158979.13   -154616.22    4.7593525   -0.3104143   -4.1698751    160.33283     2.006492   0.83792142    35.327013   -680.52235    32.319444 
219010000    316.73149   -159303.03   -159022.34   -154740.78    4.7363221  -0.30528066   -4.1628629     160.3366    2.0106912   0.83706874    35.202667    -596.0674    67.866971 
219020000    321.46061   -159295.58   -159025.47   -154679.98    4.7362639  -0.28920373   -4.1504124    160.36028    1.9968154   0.83918583    35.217641   -672.82865    89.208353 
219030000    312.08946   -159247.19   -158962.93   -154744.11    4.7297338  -0.30822762    -4.156257    160.37389    1.9922509   0.85037715    35.144699   -623.20191    100.64129 
219040000    319.32325   -159242.45   -158949.69   -154633.08    4.7301162  -0.30170558   -4.1615019    160.37614    1.9794101   0.83424201    35.272217    -653.5686    22.183639 
219050000    322.68021    -159272.9   -158974.43   -154612.45    4.7332244  -0.28858343   -4.1824981    160.36574    1.9852331    0.8385472    35.428717   -775.49571    121.60933 
219060000    317.58756   -159264.84   -158969.58   -154676.44     4.734833  -0.30273139   -4.1961791    160.35706    1.9867794   0.84045902    34.970299   -676.71479    88.854484 
219070000    317.30238   -159322.12   -159021.02   -154731.74    4.7460672  -0.27452631   -4.2024645     160.3519    1.9778498   0.84633619    34.063313   -767.42254    231.56264 
219080000    316.41101   -159389.67   -159080.37   -154803.13    4.7587923  -0.25647358    -4.216382    160.36166    1.9795734   0.86129468    34.449838   -624.72757    163.40744 
219090000    313.81449   -159389.98      -159061   -154818.86     4.745796  -0.28455671   -4.2114398    160.36518    1.9932902   0.87083693    34.722022   -637.80464    188.27674 
219100000    321.92952   -159253.45   -158944.16   -154592.32    4.7531303  -0.27214409   -4.2112596    160.36133    2.0086924   0.88866575    34.848953   -732.75736    59.353884 
219110000    313.62722   -159315.33   -159003.41   -154763.81    4.7618712  -0.25927398   -4.2150543     160.3631    1.9957088   0.85666803    34.107707   -581.05803    80.676603 
219120000    323.49733   -159391.61   -159096.74   -154723.71    4.7538056  -0.27314908   -4.2112496    160.37447    2.0068919   0.83692436     34.38566   -558.51396    13.922706 
219130000    321.46181   -159399.57   -159100.12   -154754.61    4.7440518  -0.27317997   -4.2316353    160.36897    2.0360822   0.82670277    34.013282   -641.55159    129.77122 
219140000    316.77981   -159353.25   -159040.06   -154757.84    4.7564315  -0.25663384   -4.2135321    160.35507    2.0422246   0.84593781    34.428057   -634.25297    128.85232 
219150000    314.49962    -159248.4   -158942.38   -154690.99    4.7548103  -0.25603853    -4.205774    160.34788    2.0433628   0.83958183    34.306532   -673.59837    97.929704 
219160000    321.18732   -159298.01   -159018.42   -154676.62     4.737229  -0.25486532   -4.2234074    160.35215    2.0335288    0.8271358    34.483344   -672.15155    85.122282 
219170000    317.35146   -159301.14   -158994.62   -154704.67    4.7308615  -0.27151348   -4.2275037    160.37512    2.0047152   0.82502187    34.667302   -681.24404    122.28153 
219180000    309.26199   -159357.97   -159047.87   -154867.28    4.7305956  -0.28482322   -4.2373084    160.37914    2.0112563   0.82061707    34.643448   -553.43548     153.7795 
219190000    321.99376   -159288.58   -158984.17   -154631.47    4.7461086  -0.30095771   -4.2088821    160.39172    2.0159981   0.82596918    34.721722    -713.3821    79.282941 
219200000     317.9737   -159297.97   -158984.39   -154686.03    4.7244459  -0.28879267   -4.1896277    160.37655    2.0165819   0.80451331    34.291247   -664.56393    87.178978 
219210000    314.57899   -159289.38   -158980.49   -154728.02    4.7438471  -0.28304351   -4.1958439    160.36422    2.0264473   0.80314175    34.654716   -639.67357     103.4897 
219220000    314.73039   -159364.88   -159057.17   -154802.65    4.7206039  -0.26087192   -4.1843206    160.36962    2.0393896   0.80045205    34.669091   -609.57174    146.44691 
219230000    320.56452   -159270.42   -158983.68    -154650.3    4.7250311  -0.25350185   -4.1785993    160.37295    2.0151919   0.78812122    34.593271   -664.69394    49.742682 
219240000     315.7437   -159288.32   -158986.19   -154717.97    4.7328702  -0.27810475   -4.1706928    160.37607    2.0375684   0.78251005    34.715014    -673.5096    123.87137 
219250000    322.51278   -159343.25    -159048.3   -154688.58    4.7219571  -0.28139528   -4.1585252    160.37538    2.0385822   0.78902112    34.591227   -715.25476    140.72548 
219260000    320.31501   -159323.51   -159029.74   -154699.73    4.7332514  -0.30381984   -4.1562194    160.38193    2.0462186   0.80103933    34.420906   -724.04957    160.52736 
219270000    315.19354   -159323.83   -159033.06   -154772.28    4.7250159  -0.30043434    -4.159571    160.38329    2.0512173   0.80521278     34.64505   -697.62047    206.69329 
219280000    312.13807    -159284.6   -158969.93   -154750.45    4.7390268  -0.30639351   -4.1731572    160.36071    2.0571012   0.80126421    35.312597   -597.80712    83.403958 
219290000    320.91665   -159287.87   -158988.08   -154649.94    4.7599255  -0.33686667    -4.169978    160.35394    2.0481114   0.81469944    34.534206   -771.25842    156.09682 
219300000    314.26061   -159287.68   -158975.31   -154727.14    4.7722348  -0.33780679   -4.1692715    160.36491    2.0520896    0.8356136    34.369865   -726.46156    183.84313 
219310000     320.2185    -159416.2    -159106.1    -154777.4    4.7680921  -0.32961409   -4.1584132    160.37377    2.0650673    0.8281184     34.60978   -640.18933    150.44155 
219320000    322.09651   -159307.09    -158990.8    -154636.7    4.7734894  -0.30875207   -4.1646452    160.37876    2.0504911   0.81939615    34.726499   -704.40079    74.823961 
219330000    322.17226      -159317   -159006.51    -154651.4    4.7891525  -0.27987824   -4.1687135    160.38492    2.0615819   0.82060595    35.013385   -766.05533    150.68504 
219340000    319.66866   -159329.99   -159005.29   -154684.02    4.7818905   -0.2685208   -4.1869663    160.40531    2.0544089   0.81205252    34.546014   -688.82684    107.52714 
219350000    314.49694   -159309.92   -159011.76   -154760.39    4.8066736  -0.25639213   -4.1831625    160.43055     2.045334   0.81468219    34.689551    -649.8866    143.42706 
219360000    317.22407   -159305.22    -158987.2   -154698.97    4.8002366  -0.26181025   -4.1877284    160.42345    2.0430178   0.82161499    35.257732   -642.90272    73.512336 
219370000    320.12564   -159289.18   -158993.04   -154665.59    4.7922802  -0.26901965   -4.1687479    160.41453    2.0487244   0.82214939    34.965975   -684.35931    85.184702 
219380000    315.86706    -159328.3   -159038.94   -154769.05    4.8028193  -0.27474115   -4.1901523     160.4209    2.0447144   0.81797822    35.068006   -684.70054     184.2081 
219390000    323.96053   -159143.46   -158845.14   -154465.85    4.7967378  -0.28367361    -4.185854    160.43002    2.0501448   0.82496289    35.447075   -865.54119    66.366757 
219400000    320.49379   -159316.03   -159002.65   -154670.22    4.8053582  -0.27453834   -4.1619233    160.42575    2.0454436   0.82644577    35.300191   -680.82908    85.711155 
219410000    321.55237   -159320.22   -159002.98   -154656.24    4.8043489  -0.25104445    -4.148454    160.42598    2.0530476   0.82638585    35.310194   -776.74213    170.63257 
219420000    322.08931   -159279.63   -158969.62   -154615.63    4.8064088  -0.25552712   -4.1375704    160.42912    2.0607596   0.82540657    34.788732   -724.35956     72.36479 
219430000    316.84108   -159353.72   -159047.69   -154764.64    4.8154193  -0.25262052   -4.1348416    160.44301    2.0606313   0.84098095    34.884968   -688.68552    188.69238 
219440000    323.31538   -159369.02   -159073.55   -154702.98    4.8045323  -0.27327191   -4.1244825    160.45228    2.0622993   0.83272328    35.145911   -649.84336    87.060871 
219450000    316.83187   -159400.01   -159098.16   -154815.24    4.7936985  -0.27463346   -4.1302998    160.47306      2.06713   0.83365269    34.912192   -642.99729    189.24952 
219460000    327.35291   -159357.93    -159046.9   -154621.75    4.8212143  -0.27601156   -4.1269563     160.4709    2.0793193   0.82406152    35.291944   -810.39936    162.78923 
219470000    315.65828    -159375.1   -159043.04   -154775.98    4.8248429  -0.29369703   -4.1468567      160.471    2.0960317    0.8433342    34.775277   -708.84212       217.41 
219480000    325.87877   -159302.37   -159017.71   -154612.49    4.8289694  -0.29284036   -4.1295015    160.48186    2.1125561   0.84277625    34.535701   -764.25961    110.15889 
219490000    317.13212   -159388.66   -159080.75   -154793.77    4.8340898  -0.29984668   -4.1315675    160.47766     2.105816    0.8560831     34.82068   -642.35083    172.24485 
219500000    323.09165   -159232.64   -158920.81   -154553.26    4.8146987  -0.31454665   -4.1250499     160.4953    2.0769124   0.83635047    34.762515   -854.35864    145.45068 
219510000    318.14064   -159445.48   -159129.94   -154829.32    4.8154536  -0.31611047   -4.1508224    160.47907    2.0934443    0.8365927    34.771586   -659.03007    220.59616 
219520000    318.55879   -159301.24   -158979.31   -154673.04    4.8127562  -0.29495186   -4.1621825    160.49038    2.1081678   0.83484998    34.612662   -737.86778    145.75242 
219530000    315.32498   -159354.89   -159058.66    -154796.1    4.8197564  -0.28342755   -4.1455794    160.48293     2.116113   0.84188272    34.755202   -635.07668    166.21611 
219540000    319.66949   -159232.87   -158932.88   -154611.59    4.8204044  -0.28325996   -4.1476674    160.48236    2.1179882   0.80221646    34.684054   -771.45998    120.82418 
219550000    316.21498   -159325.98   -159028.05   -154753.46    4.8262801  -0.26395313   -4.1418434     160.4986    2.1228788   0.80070242    34.791213   -695.86237    186.27706 
219560000    314.81594   -159389.19   -159059.88    -154804.2    4.8315232  -0.26166557   -4.1435295    160.49912    2.1445935   0.80141266    34.907176   -610.13603    149.31686 
219570000    317.64939   -159256.89   -158926.99   -154633.01    4.8307499  -0.26285387   -4.1385862    160.50451    2.1588602   0.79711752    34.454264   -740.72485    110.60382 
219580000    319.75661   -159294.82   -158976.73   -154654.27    4.8283449  -0.24760529   -4.1546344    160.50245     2.155172    0.7846002     34.71079   -708.63103    96.401971 
219590000    315.34909   -159268.58   -158963.07   -154700.19    4.8097202  -0.27612978   -4.1596839    160.50614     2.154729   0.77333144    34.917903   -734.49994    168.99884 
219600000    323.33752   -159332.54   -159015.35   -154644.48    4.7942709  -0.26862332   -4.1473761    160.51426    2.1568643   0.76952445    34.768741   -768.64221    146.09855 
219610000    325.39976   -159232.91   -158916.45    -154517.7    4.7813403  -0.24527405   -4.1199094    160.53227    2.1796645    0.7643423    34.909016   -840.50227    94.034017 
219620000     316.2258    -159336.2   -159009.36   -154734.62    4.7843882  -0.25374747   -4.1193465    160.52092    2.1727621   0.75213803    35.035133   -667.97853    136.45414 
219630000    312.14071      -159404    -159093.1   -154873.59    4.8175484  -0.23553053   -4.1157028    160.51918    2.1816186   0.76259863    34.997613   -639.15342     250.2268 
219640000    314.75243   -159255.78   -158926.72    -154671.9    4.8323557  -0.24222899     -4.13301    160.51592    2.1918358   0.76535498    34.509168   -748.72645     157.3042 
219650000    318.35238   -159463.32   -159139.68    -154836.2    4.8237947  -0.22708829   -4.1163012    160.50992    2.1702359   0.78105502    34.845755   -617.50505    188.08069 
219660000    321.74799   -159415.56   -159124.86   -154775.47     4.803162  -0.22425996   -4.0994724    160.51791    2.1912969   0.78047681    34.983602   -637.07434    141.62472 
219670000    316.10305   -159356.38   -159048.32   -154775.25    4.8059853  -0.23372167   -4.1049805    160.50481    2.2001228   0.78804163    34.451829   -684.52539    193.69798 
219680000    317.70143   -159347.81   -159034.58    -154739.9    4.8131521  -0.23345164   -4.1090426     160.5101    2.1994294   0.78553011    34.605984   -697.30207    170.50265 
219690000    319.91148   -159355.59   -159046.96   -154722.41    4.8148745  -0.24607053   -4.1015026    160.52658    2.1909161   0.78718929    34.925924   -699.54383     153.3758 
219700000    320.09168   -159380.41   -159082.45   -154755.45    4.7987292  -0.26539436    -4.080595    160.54481    2.1921659   0.79041116     35.32593   -717.25436     209.8688 
219710000    308.28986    -159314.6   -159012.21   -154844.76    4.7975614  -0.28482265   -4.0697409    160.53497    2.2076788    0.7817211    34.767932   -627.28429    208.36399 
219720000    322.54801   -159239.84   -158923.04   -154562.85    4.8008957  -0.27828627   -4.0580001    160.53076    2.2110312   0.76721489    35.153742   -826.07596    122.71441 
219730000    319.87615   -159299.85   -158999.44   -154675.36    4.7965217  -0.27425208    -4.047757     160.5347    2.2215147   0.75816975    35.317399   -758.60365     166.5698 
219740000    316.95584   -159288.32   -159003.52   -154718.92    4.7990951  -0.25081897   -4.0446196    160.54268    2.2338168   0.73475126    35.466243   -735.55375    190.04418 
219750000    327.01615   -159387.95   -159095.58   -154674.98    4.8089036  -0.24715802   -4.0445084    160.55208     2.244403   0.72260008    34.811762   -719.22567    128.86762 
219760000    315.33383   -159419.43   -159119.07    -154856.4    4.8017013  -0.22217156   -4.0477812    160.53206    2.2505228   0.71022107    35.013027   -655.33935    244.22816 
219770000    314.75476   -159343.14   -159036.07   -154781.23    4.7966853    -0.203953   -4.0601922    160.53681    2.2410169   0.70593778    35.970462    -732.0418     246.7067 
219780000    322.39091   -159328.07   -159031.01   -154672.94      4.81717  -0.18926736   -4.0859866    160.55534     2.235017   0.67857636    35.862416    -699.4705    105.69921 
219790000    315.44596    -159255.4   -158938.73   -154674.54    4.8144562  -0.18037735   -4.0992779       160.55    2.2566663   0.69012907    35.310853   -735.34193    144.42458 
219800000    316.00778   -159361.77   -159068.39    -154796.6    4.8288588  -0.18626259   -4.0856824    160.53853    2.2646805   0.69202166    34.949961   -675.02831    205.90033 
219810000    314.86653   -159357.25   -159054.93   -154798.57    4.8365472  -0.19900898   -4.0960931    160.54176    2.2627674   0.68934831    34.994036   -769.69966     304.2126 
219820000    315.51236   -159252.09   -158948.98   -154683.89     4.831814  -0.19026421   -4.0980642    160.54133    2.2679539    0.7073357    34.542989   -758.58306    175.13468 
219830000    319.55513   -159295.89   -158985.54   -154665.81    4.8439665  -0.20531772   -4.0502943    160.53263    2.2752275   0.66740296    34.422711   -788.50988    188.02616 
219840000    318.54987   -159388.34   -159093.06   -154786.91    4.8309248  -0.20678421   -4.0593744    160.54773    2.2623055   0.65687318    34.668647   -693.30582    214.51205 
219850000    311.01338   -159292.99   -158993.25   -154788.98    4.8310561  -0.21095514   -4.0423944    160.55309    2.2677134   0.63405549      34.8084   -706.54601    232.64831 
219860000    325.28052   -159394.85   -159105.94   -154708.81    4.8254017  -0.20641922   -4.0546413    160.56472    2.2865454   0.63552717    34.463262   -801.79768    242.67373 
219870000    320.26318   -159247.63   -158942.74   -154613.43    4.8194765  -0.20030813   -4.0276737    160.58476    2.2802865    0.6386393    34.497724   -770.56543    115.43326 
219880000    313.66452   -159385.13   -159081.55   -154841.45    4.8165738  -0.20116671   -4.0373205    160.58005    2.2756562   0.65749007    33.770779   -688.23466    262.35695 
219890000    316.07118   -159339.41   -159039.94    -154767.3    4.8422619  -0.21762757   -4.0398234    160.57555    2.2772032   0.65795859    34.843514   -716.75516    219.33364 
219900000    319.73542   -159368.14   -159076.65   -154754.48    4.8423753  -0.23276641   -4.0383614    160.57158    2.2508599   0.65501752    34.685026   -641.93785    127.98668 
219910000    314.46161   -159370.78   -159065.65   -154814.77    4.8438208  -0.20156192   -4.0273818    160.59045    2.2713693   0.65424365    34.112749   -640.02606    189.07414 
219920000    319.11713    -159309.4    -159005.2   -154691.38    4.8365239   -0.2283631   -4.0170157    160.57808    2.2902158   0.65332387    34.957765   -732.32518    156.81453 
219930000    320.19522   -159362.79   -159056.33   -154727.94    4.8390704  -0.20958243   -4.0269197    160.57345    2.2957556   0.66027232    34.954204   -751.36456    217.32024 
219940000    314.91036   -159380.32   -159073.26   -154816.31    4.8548499  -0.20824997    -4.016354    160.56853      2.30534   0.65308447    35.082929   -722.19664    273.55121 
219950000    321.39305   -159336.79    -159022.1   -154677.52    4.8431545  -0.19285443   -4.0134123    160.59033    2.2987353   0.65489044    34.510454   -795.66878     209.2971 
219960000    324.34096   -159335.35   -159033.76   -154649.33    4.8350455  -0.17430981   -4.0027945    160.60463    2.2883434   0.67823976    34.923908   -774.51142    158.16059 
219970000    319.71219    -159399.7   -159092.67   -154770.81    4.8288022  -0.17371123   -3.9986469     160.6035    2.3132661   0.66911382    34.763642   -661.78794    165.33172 
219980000    318.43316   -159325.32   -159025.06   -154720.49    4.8334859  -0.16559865    -4.001456    160.59193    2.2907047   0.67916062    34.497627   -753.59403    210.72018 
219990000     320.2959    -159205.5    -158899.1   -154569.35     4.851599  -0.17040068   -3.9971288    160.57973    2.2871055   0.67532983     34.74815   -802.78139    109.22313 
220000000     314.0454   -159264.19   -158975.49   -154730.23     4.845115  -0.15909915   -3.9848562    160.56778    2.2958233   0.66885053    35.173512   -727.52869    192.12512 
220010000    313.09419      -159306   -159015.02   -154782.62    4.8509741  -0.15845226   -3.9941626    160.57961     2.297657   0.68063816    35.110814   -657.47792     172.1447 
220020000    312.49212   -159288.86   -158994.82   -154770.56     4.867261  -0.15389877   -3.9823258    160.58607     2.305408   0.68225735    34.934692   -694.77771     198.8979 
220030000     324.6794   -159316.32   -159013.42   -154624.41    4.8532091  -0.17422024    -3.999268    160.58011    2.3228904    0.6614737    34.905122   -783.04274    142.72309 
220040000      318.273   -159307.27   -159022.99   -154720.59    4.8342577   -0.1818541   -4.0027562    160.56895    2.3108689   0.68981882    34.258061   -742.71072    202.10785 
220050000    320.40497    -159343.2   -159032.96   -154701.74     4.824479  -0.16906623   -4.0066563    160.56744    2.2974276   0.68551616     34.56916   -703.08512    141.06988 
220060000    316.76218   -159218.64   -158919.74   -154637.75    4.8085969  -0.17646683   -4.0002554    160.56401     2.300619   0.68732056    34.340763   -808.00137    184.17524 
220070000     314.6027   -159272.93   -158967.23   -154714.44    4.8023817  -0.17942235   -4.0148173    160.56635    2.3016376   0.67222826    34.546728   -781.01056    230.40729 
220080000     317.3423   -159387.81   -159067.76   -154777.93     4.787188  -0.18362788   -4.0314251    160.56903    2.3038016   0.66761443    34.600291   -670.24299    184.68943 
220090000    321.36594   -159370.87   -159058.13   -154713.91    4.7989088   -0.1743851   -4.0537883    160.56148    2.3039859   0.65905359    34.223302   -793.72521    242.55658 
220100000    319.39699   -159285.66   -158957.72   -154640.12    4.8072445  -0.15289747   -4.0406809    160.56865    2.2977869   0.65317655    34.403568   -795.24786    170.19253 
220110000    312.71371   -159224.67   -158908.01   -154680.76    4.8000784  -0.17121908   -4.0394722    160.57383    2.3142569   0.63365489    34.371692   -760.62158    177.25641 
220120000    327.01166   -159259.04   -158955.05   -154534.52    4.8145803  -0.15645646   -4.0261849    160.56844    2.3112586   0.63024344    34.167809   -823.73368     96.08053 
220130000    316.44536   -159420.15   -159090.42   -154812.72     4.822604  -0.11965407   -4.0340092    160.57926    2.3140529   0.59853064    34.702089   -683.07889    228.28984 
220140000     323.5555   -159374.88   -159069.66   -154695.85    4.8077353   -0.1200246   -4.0169521    160.57378    2.3196147   0.58894716    34.278169    -742.0619    174.22785 
220150000    314.16247   -159264.26   -158952.99   -154706.15    4.8029006 -0.099204261   -4.0065421    160.56743    2.3413654   0.58137503    34.264344   -714.69854    156.96601 
220160000    319.47397   -159302.46   -158981.86   -154663.22    4.8019905  -0.10088623    -4.009676    160.57167    2.3464616   0.57095648    34.378421    -763.7978    162.26927 
220170000    322.14752      -159396   -159076.18    -154721.4    4.8071291 -0.087822394   -4.0005976    160.57281    2.3299386   0.57020242     34.51427   -748.75474    204.87291 
220180000    317.02165    -159329.5   -158996.11   -154710.62    4.7961406 -0.077436146   -4.0050628    160.57558    2.3350103   0.55910075    34.683838   -817.38774    258.43265 
220190000    318.16258    -159273.2   -158954.01    -154653.1    4.7878611 -0.065674711    -3.999573    160.56351    2.3600067   0.54553478    34.586045    -795.1178    183.53889 
220200000    325.34977   -159448.95   -159148.68   -154750.61    4.7725622 -0.065094137   -4.0119526    160.56151    2.3684668   0.55913962    34.868214   -721.25456     206.9972 
220210000    319.44763   -159339.75   -159029.98    -154711.7    4.7633137 -0.072512763   -4.0027351    160.56639    2.3846051   0.55866912    35.138707   -696.78386     140.8308 
220220000     323.8941   -159282.41   -158974.37   -154595.98    4.7709859  -0.05521057   -4.0120021    160.54762     2.364807   0.55674186    34.640917   -828.68447    158.54279 
220230000    315.42472   -159304.67   -158997.05   -154733.15    4.7848832 -0.057001374   -4.0259885    160.54335    2.3624804   0.54392108    34.454727   -641.08526    105.80067 
220240000    317.55015   -159372.48   -159040.92   -154748.29    4.7914701 -0.067898691   -4.0392899    160.54328    2.3770744   0.54166696    34.613941   -765.66112    248.44171 
220250000     320.2217   -159346.87   -159033.73   -154704.98    4.8174384 -0.060807299   -4.0350869    160.53767    2.3643931   0.56347444    34.108508   -706.56718    144.78109 
220260000    321.21744   -159252.21   -158942.86   -154600.65    4.8230894  -0.05798359   -4.0309388    160.53215    2.3800765   0.52366902    33.959464   -774.31024    108.49866 
220270000    324.11624   -159374.64   -159065.47   -154684.07    4.8128314 -0.046941403   -4.0000676    160.51459    2.3758794   0.50835929    34.431185   -689.98363    108.59468 
220280000    318.47716   -159264.67   -158963.15   -154657.98    4.8132015 -0.027011685    -4.017947    160.52648    2.3728605    0.5134377    34.750814   -806.81863    199.86348 
220290000    317.72993   -159223.23   -158914.99   -154619.92    4.8108365 0.00020521864   -4.0205222    160.55246      2.36885   0.50421367    34.198792    -720.9543    78.351925 
220300000    320.68963   -159344.75   -159026.89   -154691.81    4.8119748 0.0080223397   -4.0255539    160.55044    2.3563232   0.50121483    34.450355   -832.56897    258.17095 
220310000    315.69323   -159304.38   -158982.47   -154714.94    4.8147592 0.0044929083   -4.0250153    160.56205    2.3505195   0.50485681    34.044094   -708.18881    155.57093 
220320000    317.86752   -159317.05   -159004.38   -154707.46    4.8353406 0.00033482918   -4.0300161    160.57009    2.3561756   0.51463756    34.402411   -738.96712     180.3467 
220330000     316.1312    -159267.3   -158957.96   -154684.51    4.8383765 -0.019090679   -4.0338866    160.54973    2.3729591   0.53007041    34.543189   -706.50602    127.18684 
220340000     319.2701   -159369.18   -159066.57   -154750.68    4.8428887 -0.020738032   -4.0379822    160.55753    2.3817326    0.4994935    34.188416   -717.14846    202.34385 
220350000    316.21621   -159360.46   -159046.78   -154772.18    4.8643123 -0.0097591973   -4.0292649    160.54638    2.3869475    0.5003973    34.209174   -742.51543     251.5706 
220360000    318.67693   -159411.28    -159085.5   -154777.63    4.8807124 -0.015390173   -4.0157781    160.54265    2.3822803   0.51562223     33.78864   -740.79984    250.63094 
220370000    318.00792   -159336.03   -159010.63   -154711.81    4.9081112 -0.032524712   -4.0218946    160.55198    2.3892641   0.52148195    33.756088   -749.65257    194.76193 
220380000    325.40919   -159287.01   -158983.03   -154584.16    4.9147103  -0.02521133   -4.0048765    160.55093     2.421212   0.51308935    34.103347   -793.33505     112.6332 
220390000    316.45451   -159438.11   -159099.77   -154821.94    4.9122496 -0.031314098    -4.009105    160.55568    2.4481469   0.49262548    34.677368   -749.41844    304.04374 
220400000     319.7042   -159431.27   -159119.15   -154797.39    4.8973204 -0.045461685   -3.9959389    160.56808    2.4508293   0.49517158    34.932734   -750.75868    281.31473 
220410000     320.5099   -159273.24   -158969.09   -154636.45    4.9250157 -0.033586058   -4.0086667    160.55915    2.4449237   0.51420662     35.40154   -823.86755    196.76038 
220420000       321.71   -159343.48   -159045.72   -154696.85    4.9245828 -0.026070968   -3.9992334    160.56164     2.442074   0.52865134    34.049556    -795.4523     226.3376 
220430000    321.54782   -159366.73   -159073.08   -154726.41    4.9323983 -0.022696442   -4.0362693    160.56317    2.4355041   0.56450637    34.875234   -761.84605    219.90152 
220440000    321.17547   -159354.55    -159049.1   -154707.46    4.9334567  -0.03495649   -4.0278383     160.5568    2.4390427    0.5453428    34.420489   -763.55534    203.52919 
220450000     321.6098   -159362.29   -159046.08   -154698.57    4.9428294 -0.026069131   -4.0182706    160.54187    2.4454133   0.53308516    34.109044   -748.88526     179.2428 
220460000    320.88303   -159348.65   -159027.42   -154689.73    4.9528946 -0.012449034   -4.0031336    160.57514     2.446057   0.55867651    34.366781   -797.88321    224.75596 
220470000    318.06457   -159367.81   -159057.19    -154757.6    4.9485875 -0.024210643    -3.995825     160.5447     2.449359   0.54136561     33.98091    -779.4857    270.95095 
220480000    317.08937   -159313.13   -159016.37   -154729.96     4.948926 -0.035867805   -3.9997363    160.55639    2.4446458   0.52356947    33.968073   -752.44186    215.14432 
220490000    310.76139    -159381.6      -159090   -154889.14     4.960903  -0.03756455   -3.9953783    160.57273    2.4598493   0.50786059     34.30028   -664.90019    289.21486 
220500000    316.80099   -159312.88    -158996.8    -154714.3    4.9557213 -0.045479841    -4.017597    160.57516    2.4565931   0.50855858    34.466382   -838.80455    289.22039 
220510000    317.64303   -159330.62   -159031.34   -154737.45    4.9625649 -0.028977331   -4.0257144     160.5617    2.4632777    0.5015256    34.317638   -820.62024    293.03592 
220520000     316.9588   -159396.66   -159084.97   -154800.33    4.9670442 -0.012243741   -4.0331175    160.56645     2.470685   0.51053664     34.15012   -734.09224    269.97473 
220530000    321.17518   -159301.17   -159013.22   -154671.58    4.9811328 0.0020084409   -4.0372986    160.57361    2.4571846   0.53058645    33.983128   -779.41975    184.63454 
220540000    323.98085   -159373.16   -159064.19   -154684.63    4.9971267  0.019651738   -4.0496804    160.57718    2.4610429   0.53198213    33.634415   -768.39128    187.90427 
220550000    314.51085    -159469.5   -159185.65   -154934.11    4.9765218 0.0066287867   -4.0542371    160.57558     2.457623   0.53428263    34.358018   -618.45792    284.70646 
220560000    319.64922   -159371.66   -159082.17   -154761.16    4.9629839  0.030115225   -4.0482892    160.55614    2.4628875   0.54321299    34.392669   -759.32039    259.20497 
220570000     317.4577   -159318.45   -159028.07   -154736.68     4.972891  0.041474912   -4.0296849    160.57366    2.4699799   0.53137766    34.423251   -803.36745    276.46839 
220580000    317.34897   -159247.91   -158952.97   -154663.06     4.969716  0.068061953   -4.0276191    160.57144      2.47875   0.52881431    34.258068   -767.48535    166.07526 
220590000    315.90883    -159311.5   -159012.67   -154742.22    4.9648734  0.056674605   -4.0220921    160.56797    2.4735317   0.52057157    34.593117   -768.25479    247.57362 
220600000    319.49356   -159249.51    -158965.5   -154646.59    4.9621205  0.059152203   -4.0433923    160.56716    2.4741408   0.53433313    34.646482   -858.79648    239.13249 
220610000    321.96346   -159284.32   -158982.45   -154630.15     4.970722   0.08952966   -4.0212583    160.54399    2.4838859   0.55189918    34.840377   -818.84331    184.88848 
220620000        317.2   -159391.15   -159105.31   -154817.41    4.9756906  0.077312353   -4.0255072    160.54975    2.4832845   0.57314853    34.838579   -715.99511     263.8438 
220630000    319.18582   -159300.16   -159003.83   -154689.08    4.9983421  0.081525767   -4.0177658    160.54312    2.4763236   0.54492868    34.306288   -789.05015    211.26764 
220640000    320.13666   -159245.79   -158964.54   -154636.94    4.9950868  0.065667928   -4.0170701    160.56295    2.4711439   0.53555557    34.320873   -880.25522     251.1635 
220650000    321.12986   -159281.52    -158996.3   -154655.27    5.0089702  0.089317306   -4.0176253    160.54499    2.4819913   0.54891045    34.263784   -853.90646    248.06304 
220660000    320.80019   -159385.52   -159108.81   -154772.24     4.978878  0.098887834   -4.0283869    160.55805     2.486039    0.5432112    34.249745   -700.59331    204.70713 
220670000     315.4442   -159398.77   -159104.39   -154840.22    4.9754795  0.082313905   -4.0243656    160.54939    2.4911279   0.54798078    34.287805   -637.86758    211.00592 
220680000    315.29033   -159403.74   -159097.81   -154835.72    4.9775373  0.097982802   -4.0331874    160.55543    2.4985957   0.55144158    34.291647   -675.71824    243.26416 
220690000     318.1465   -159323.33   -159038.04   -154737.34    5.0088979   0.11182394   -4.0293438    160.55241    2.4989776   0.54551458    34.353091   -798.37087    273.71662 
220700000    318.32083   -159247.99   -158934.66    -154631.6    5.0273802   0.11309823   -4.0385288    160.54953    2.4847847    0.5404088    34.254509   -847.42461    217.98175 
220710000     320.7423   -159267.26   -158978.12   -154642.34    5.0012355   0.12554435   -4.0446124    160.55846    2.4877827   0.54419793    34.651791   -801.64114    181.22796 
220720000    314.02636   -159276.66   -158989.54   -154744.54    5.0130544   0.14349131   -4.0759136     160.5467    2.4517947   0.54833773    34.195119   -773.97871    253.05801 
220730000    313.56849   -159289.06    -158966.9   -154728.09    5.0085888   0.16064664   -4.0775182    160.53871    2.4436747    0.5410593    34.583247   -848.83485    314.92431 
220740000    322.92775   -159348.28   -159053.77   -154688.44    5.0112475   0.15274327   -4.0713525    160.53252    2.4541197   0.56400772    34.309237   -788.68339    208.13399 
220750000    322.23487   -159290.27   -158998.84   -154642.87    5.0176498   0.16153508   -4.0776357    160.51096    2.4621231   0.54250257    33.854823   -827.12127    206.47197 
220760000    320.30224   -159319.58   -159030.95   -154701.11    5.0041906   0.14949344    -4.066389    160.51753    2.4785501   0.52953189    33.967692   -805.35934    241.43928 
220770000    315.26392   -159312.63   -159011.44   -154749.71     5.016914   0.13015325    -4.074952    160.52165    2.4844083   0.53082517    34.106908   -809.46983    297.93766 
220780000    319.94168   -159362.62   -159064.87   -154739.91    5.0097886   0.12952626   -4.0760414    160.51074    2.5002868    0.5249374    35.329294   -805.65034    279.72282 
220790000    315.77695   -159290.91   -158994.36   -154725.69    5.0149143   0.11354515   -4.0850877    160.52126    2.5138534   0.52754808    35.130895   -778.43564    237.45473 
220800000    318.06695   -159363.89   -159059.02    -154759.4    5.0168462  0.091846717   -4.0805888     160.5209    2.5026204   0.53672545    34.907104   -765.76325    259.53015 
220810000    311.48928   -159393.12   -159094.13   -154883.43    5.0077656   0.09851167   -4.0832767    160.50581     2.501162    0.5413443     34.28306   -780.20454    394.79378 
220820000    319.18094   -159387.02   -159119.78    -154805.1    4.9979972   0.10628919   -4.0720278     160.5051    2.4925152   0.51990058     34.39507   -737.88439    276.13341 
220830000    314.80747    -159279.9   -158992.05    -154736.5    4.9790019  0.099996226   -4.0893967    160.51077    2.4943073   0.52659269    34.195861   -828.00602    297.82939 
220840000    314.73216   -159332.13   -159049.08   -154794.54    4.9671514   0.10569078   -4.0804612    160.50977    2.4853597   0.53122771    34.049538   -784.08247    311.99045 
220850000    315.81944   -159217.34   -158930.22   -154660.98    4.9512959   0.10409679   -4.0613147    160.52214    2.4756285   0.53016723    35.071577   -881.07608    277.90671 
220860000    319.00089   -159316.55   -159025.72   -154713.47    4.9592863   0.10037394    -4.053414    160.53132    2.4718607   0.53276447    35.457238   -812.69614    263.84101 
220870000    321.25109   -159253.78   -158959.83   -154617.16    4.9430566   0.10056423   -4.0845119    160.52489    2.4770999   0.54114413    35.216679   -889.91085    242.55542 
220880000    313.51128   -159373.55    -159085.7   -154847.66    4.9787806   0.10353502   -4.1076105    160.54004    2.4865662   0.54573383    35.207727   -726.11013    306.34163 
220890000    315.01837   -159266.21   -158987.36   -154728.95    4.9681807  0.091341084   -4.0999459    160.53802    2.4841593   0.54244815    34.825724   -779.78601    243.40346 
220900000    320.57814   -159323.72   -159041.93   -154708.37     4.968073  0.080166598   -4.1086496    160.54293    2.4942302   0.53872416    34.894257   -808.07539    253.80334 
220910000    313.78796   -159357.24   -159065.25   -154823.48    4.9821209   0.08995084    -4.098589    160.54769    2.4901626    0.5580215    34.671228   -745.93053    301.60662 
220920000     315.8502   -159299.65   -159019.35   -154749.69    4.9841451   0.10316653   -4.0819604    160.54079     2.481476   0.53970576    34.508397   -774.52668     258.6264 
220930000    314.08126   -159361.45   -159078.33   -154832.59    4.9989604  0.096969984   -4.0858612    160.54939    2.4917375   0.53687055    34.500783    -769.9093    335.98614 
220940000    322.12563   -159367.02    -159084.9   -154730.42    4.9977489  0.069830301   -4.0759139    160.56283    2.4907713   0.55313929    34.647299    -799.2647    264.34605 
220950000     308.1199   -159454.82   -159160.26    -154995.1    4.9965365  0.061249305   -4.0639878    160.57752    2.5089274   0.55474213    34.426166   -647.06863    376.59585 
[...]
267810000    319.69106   -159335.71   -159059.46   -154737.88    7.0652564    1.2031801   -2.3344021    161.34503     3.188653    1.9357367    34.179881   -2975.8597    2444.9698 
267820000    315.47799   -159363.06   -159068.75   -154804.12    7.0750738    1.1970032   -2.3083658    161.34645    3.1972944    1.9420434    34.781588   -2984.6483    2525.3492 
267830000    314.44723   -159349.17   -159048.46   -154797.77    7.0778426    1.2067196    -2.293889    161.33604    3.1928083    1.9504093    34.406374   -2954.2924    2485.4093 
267840000    311.67665   -159285.88   -158996.62   -154783.38    7.0754445    1.2156596   -2.2868938    161.32862     3.198655    1.9552143    34.994261   -2990.3931    2507.2767 
267850000    322.01281   -159294.96   -159007.62   -154654.65    7.0536473    1.2343513   -2.3072025     161.3294    3.1809107     1.958448    34.900964   -3027.2314    2416.6251 
267860000    318.23526   -159265.83   -158990.43   -154688.54    7.0445823    1.2409869   -2.2956361     161.3354    3.1722208    1.9504318    34.755374   -2946.6366    2372.6705 
267870000    317.21676   -159280.24   -158994.06   -154705.94    7.0434883    1.2286338   -2.3051477    161.30887    3.1801283     1.950765    34.567823   -3051.9032    2493.5772 
267880000    321.43098    -159346.7   -159064.16   -154719.06    7.0355745    1.2263791   -2.2911787    161.31344    3.1900163    1.9328229    34.349436   -3027.2663     2480.573 
267890000    321.05744   -159348.16   -159060.49   -154720.45    7.0546608    1.2036134    -2.310654    161.32401    3.2014873    1.9323912    34.145456   -2985.6063     2439.786 
267900000    313.22091   -159294.08    -159006.8   -154772.69    7.0429802    1.1874792   -2.3037682    161.33666     3.186702    1.9221531    33.857294   -2958.0258    2466.0736 
267910000    316.65191   -159360.82   -159059.24   -154778.75    7.0633227    1.1918461   -2.3089971    161.32217    3.1762759     1.926065    34.490348   -2957.5082    2469.3655 
267920000    318.04526   -159329.22   -159028.58   -154729.25    7.0763494    1.2020545   -2.3144232    161.33566    3.1667155    1.9058829    34.332015   -2986.9558    2452.1848 
267930000    315.33881   -159281.15   -158970.32   -154707.58    7.0544058    1.1991197   -2.3107728    161.33561    3.1760493    1.8996212     33.89882   -3035.6455    2479.6008 
267940000     315.4325   -159256.14   -158953.91    -154689.9    7.0369354     1.202019   -2.3126159    161.34549    3.1844186    1.8971556    35.007474   -2990.0792    2414.8003 
267950000    319.36365   -159376.05   -159101.69   -154784.54    7.0311247    1.1886429   -2.3343818    161.34391    3.1909835    1.8940267    34.633543   -3005.0279    2521.6563 
267960000    320.72066   -159276.68   -158971.52   -154636.02    7.0286153    1.1830033   -2.2980952    161.35385    3.1870515     1.891249    33.923524   -3006.4634    2373.4431 
267970000    314.90595   -159290.18   -159002.35   -154745.46    7.0224799     1.168762   -2.2951388    161.37788    3.1826041     1.880588    33.731508   -3033.3685    2515.7944 
267980000    320.04607   -159241.31   -158938.12   -154611.75    7.0291918    1.1662541   -2.2885242    161.37743    3.1936096    1.8872518    33.683486   -3033.3063    2379.3409 
267990000    315.81808   -159347.33   -159060.28   -154791.06     7.042998    1.1674143   -2.2791613    161.39164    3.1979493    1.8725612    34.166762   -3001.1621    2525.2322 
268000000    316.88413   -159294.69   -158987.22   -154703.59    7.0432365    1.1755661   -2.2713553    161.39971    3.1811682    1.8807697    33.918125   -3004.5022    2444.2792 
268010000    322.84978   -159279.49   -158973.97    -154609.7    7.0438411     1.185261   -2.2689392    161.39714    3.1823795    1.8932777    34.567408   -3060.7118    2407.8974 
268020000    318.75762   -159352.42   -159052.98   -154744.03    7.0390415     1.186497   -2.2794923    161.38489     3.195014    1.8808998    34.381366   -3062.9493    2543.2904 
268030000    317.15682      -159328   -159039.98   -154752.66    7.0219893    1.1777797   -2.2775387    161.37786    3.2174619    1.8791751    34.727708   -2936.2193    2419.3949 
268040000    314.76299   -159366.63   -159078.79   -154823.83     7.012433    1.1886545   -2.2499452    161.36728    3.2191463    1.8744608    34.954094   -2953.0176    2511.1867 
268050000    311.05664   -159365.06   -159065.05    -154860.2    7.0119511    1.1920408   -2.2512084    161.37083     3.240921    1.8828214    34.721418   -2940.6833    2533.9475 
268060000    316.84648   -159433.67   -159149.87   -154866.75    6.9932766    1.1999194    -2.263874    161.38161    3.2503804    1.8903196    34.777002   -2959.8444    2557.7688 
268070000     314.8931   -159288.68   -159000.78   -154744.06    6.9889664    1.1976083   -2.2715204    161.38245    3.2538719    1.9087345    34.472832   -3012.7281    2491.7444 
268080000    316.13624   -159359.87   -159080.61   -154807.09    6.9744073    1.2174953   -2.2692455     161.4131     3.255118    1.8948513    34.538221   -3036.8863    2581.7082 
268090000    319.45154   -159216.35   -158912.74    -154594.4    7.0025408    1.2163749   -2.2473837    161.39338    3.2412222    1.8974398    34.864141   -3116.9769    2446.3571 
268100000    311.90108   -159287.37   -159002.24   -154785.97    6.9993595    1.2189088   -2.2645179    161.39566    3.2492792     1.893928    34.482897    -3024.482    2542.9027 
268110000    321.87583   -159392.45   -159130.49   -154779.39    6.9968407    1.2131971   -2.2689481     161.3983    3.2258441    1.8913847    34.049534   -2957.8268    2469.3249 
268120000    312.91904   -159444.06   -159158.19   -154928.15    6.9938338    1.2320409   -2.2618567    161.38874    3.2218878    1.8845884    33.885735   -2939.7211    2599.2219 
268130000    319.86277    -159299.3   -159008.02   -154684.12    7.0070247    1.2216804   -2.2686488     161.3872    3.2388388    1.8943446    34.285567    -3066.944    2486.7778 
268140000    314.50479   -159221.38   -158939.41   -154687.95    7.0147297    1.2390737   -2.2463954    161.39356    3.2300186    1.8918786    34.286884   -3021.8538    2443.1178 
268150000    316.97295   -159231.15   -158955.36   -154670.53    7.0068662    1.2222549   -2.2698125    161.39721    3.2176392    1.8865894    33.866067   -3024.5865    2430.8804 
268160000    321.83222   -159386.18   -159121.61   -154771.09    7.0057077    1.2058426   -2.2837857    161.39182    3.2152248    1.8972561    34.408787   -3030.6179    2539.6465 
268170000    309.10064   -159355.87   -159067.43   -154889.01    6.9881563    1.2215426   -2.2940378    161.39963    3.2324497    1.8937324    33.914532   -2949.3256     2571.846 
268180000    315.30791   -159366.04   -159087.71   -154825.38    6.9823627    1.2434489   -2.2980994    161.39205    3.2306846    1.9026979    34.018103   -2973.4828    2534.3421 
268190000    315.73225   -159365.49   -159075.82   -154807.76    6.9801858     1.267126    -2.315883    161.38791    3.2336672    1.9126946    34.370734   -3068.6676    2609.5366 
268200000    314.44945   -159330.96   -159042.42    -154791.7    7.0167218    1.2747903   -2.3087892    161.39868    3.2406574    1.9055203    34.705993   -3015.1472    2540.4684 
268210000    315.42662   -159328.35   -159039.99   -154776.06    7.0384418    1.2562897    -2.320684     161.4097    3.2552414    1.9043997    34.502598   -3034.0107    2541.9085 
268220000    317.98706   -159360.43   -159079.19   -154780.65    7.0488753    1.2692387   -2.3182719    161.40081    3.2566107    1.9037576    34.238224   -2978.4029    2492.6865 
268230000    316.29513   -159373.27   -159103.27    -154827.6    7.0546526    1.2472655   -2.3445727    161.41734     3.261634    1.9030295    34.267911   -3011.9816    2577.5113 
268240000    312.50884   -159363.81   -159083.32   -154858.84    7.0439533    1.2488912   -2.3656873    161.42657    3.2777682     1.901533    34.022796   -2953.9375    2545.6891 
268250000    315.42196   -159349.46    -159064.7   -154800.83    7.0312677    1.2546791   -2.3659598    161.43592    3.2907089    1.8953464    34.235531   -2942.7619    2480.1075 
268260000    312.19796   -159261.48   -158970.04   -154749.75    7.0291875    1.2422075   -2.3654349    161.45785    3.2674537    1.8928485    33.724989   -2966.5447    2453.6196 
268270000    310.17618   -159334.37   -159039.92   -154846.96    7.0478906    1.2192444   -2.3473384    161.43914    3.2699216    1.8821604    34.298626   -2930.9225    2514.6401 
268280000    309.91369   -159425.98    -159146.7   -154957.29    7.0414721    1.2314001   -2.3449454    161.44092    3.2680458    1.8758931    34.574673   -2911.7421    2603.4512 
268290000    319.56568   -159281.41   -159019.44   -154699.56    7.0580451    1.2309356   -2.3444386    161.42566    3.2756861    1.8757105     34.15171   -3038.6698    2471.4136 
268300000     319.3478   -159204.26   -158923.57   -154606.63    7.0668778    1.2358161   -2.3589763    161.42496    3.2862667    1.8727727    34.218497    -3166.433    2513.7087 
268310000    313.16052   -159311.82   -159017.42   -154784.13     7.061005    1.2450689    -2.369655    161.42701    3.2974632    1.8542506    34.466489   -2998.2744    2517.2407 
268320000    316.36796   -159282.29    -159014.8   -154738.15    7.0770859    1.2478319   -2.3830363    161.44726    3.3072101    1.8550637    33.984828   -3121.0358    2591.6222 
268330000      322.516   -159348.97   -159047.85   -154688.08    7.0813117     1.258464   -2.3849019    161.45833    3.3290493    1.8558449    34.533258   -3009.6053    2432.4691 
268340000    312.98749   -159222.41   -158934.69   -154703.73    7.0762891     1.265483   -2.4240147    161.45355    3.3197835    1.8428886    34.477186   -3043.3891    2482.3719 
268350000    316.63273   -159365.28   -159068.28   -154788.05    7.0654265    1.2754684   -2.4242135    161.45643    3.3057438    1.8283778    34.630815   -3007.6516    2530.3223 
268360000    312.99433   -159308.24   -159021.06   -154790.01    7.0665011    1.2613229   -2.4280831    161.44121    3.3160704    1.8313965    34.496455   -3061.5704     2585.676 
268370000      312.794   -159391.48   -159102.63   -154874.28    7.0612513    1.2624965   -2.4149173    161.44728    3.3279245    1.8288507    34.704879   -3001.6829    2609.4883 
268380000    313.95527   -159254.76   -158968.68   -154724.64    7.0649272    1.2390003   -2.4054582    161.42796    3.3175642    1.8203588    34.392904    -3054.229    2513.7802 
268390000    322.72195   -159322.46   -159045.14   -154682.59    7.0958696    1.2590268   -2.4091198    161.42301    3.3167555    1.8126502    34.180648   -3091.5681    2506.7361 
268400000    311.75162      -159378   -159116.86   -154902.61    7.1048979    1.2468548   -2.3958719    161.42091    3.3024493    1.8199212    34.244968   -2901.6088    2541.2131 
268410000    320.30809   -159435.59   -159160.09   -154830.17     7.081199    1.2568061   -2.4043237    161.41663    3.2946627    1.8297799    34.336422   -3057.9896    2619.8037 
268420000    321.94929   -159305.12   -159030.94   -154678.84     7.099661    1.2792934   -2.3810753    161.43318    3.3100496    1.8455219    35.055939   -3080.4489    2495.2131 
268430000    314.96743   -159419.78   -159135.38   -154877.66    7.1094096     1.268458   -2.3655808    161.43468    3.3159359    1.8424064    34.381244    -3017.513    2628.5663 
268440000    314.54595   -159342.72   -159069.27   -154817.24    7.1055484    1.2752051   -2.3601803    161.43441    3.3062915    1.8416477     35.04139   -2976.4733     2527.173 
268450000    321.11559    -159304.8    -159038.1   -154697.27    7.1163144    1.2731107   -2.3570433    161.43051    3.2749753    1.8320235    34.661575   -3050.8134    2481.0835 
268460000     316.0097      -159402   -159135.87   -154864.06    7.1176912    1.2774456   -2.3797146    161.43593    3.2724395    1.8344029    34.718537   -2905.8369    2504.8088 
268470000    317.77414   -159305.25   -159034.36    -154738.7    7.1273892    1.2749252   -2.3758594    161.43416    3.2784918    1.8339483    34.739004   -3094.3646    2566.5317 
268480000    314.45305    -159311.3   -159027.72   -154776.95    7.1254203     1.266138   -2.3671094    161.42072     3.265622    1.8431596    34.431288   -3063.9132    2577.0364 
268490000     310.8092   -159375.23   -159104.08   -154902.57    7.1477854    1.2736743    -2.356285    161.43323    3.2672971    1.8320569    34.217993   -2973.0605     2610.823 
268500000    323.40474   -159293.77    -159009.8   -154638.02    7.1677685    1.2660593   -2.3529871    161.44424    3.2613508    1.8522248    33.880821   -3159.4008    2536.0562 
268510000    316.69387   -159266.97   -158992.71   -154711.65    7.1885313     1.265174   -2.3697898    161.43478    3.2591258    1.8616121    34.070681   -3056.8055     2504.959 
268520000      308.954   -159385.82   -159103.95   -154927.52    7.1871109    1.2502766   -2.3726013    161.44163    3.2612824     1.858295    34.714315    -2984.866    2648.1315 
268530000    320.03262   -159241.44      -158969    -154642.8    7.1898451    1.2384983   -2.3879146    161.42824    3.2527917    1.8618947     34.49172   -3089.8029    2467.2746 
268540000    311.93302   -159329.34    -159050.2    -154833.5    7.1873609    1.2333406   -2.3911088    161.42669     3.249522    1.8577899    34.355584   -2962.8584    2527.0598 
268550000    318.23915   -159380.57   -159098.99   -154797.04    7.1731894    1.2426377   -2.4123809    161.41864    3.2636886    1.8374522    34.068496      -3001.2    2533.4024 
268560000    316.05888   -159337.06   -159047.81   -154775.34    7.1959631    1.2312553    -2.395379    161.41352    3.2668356    1.8206748    33.941845   -3025.8899    2535.2079 
268570000    317.24245   -159375.88   -159079.82   -154791.34    7.1893492    1.2299276   -2.4096156     161.4244    3.2824844    1.8426854    34.275115   -3020.5546    2547.2806 
268580000    319.36703   -159324.56   -159029.78   -154712.58    7.1817324    1.2249896   -2.4216672    161.43612    3.2791147    1.8605045    33.981944   -3071.6457    2520.7875 
268590000    318.84951   -159293.23   -159018.65   -154708.45    7.1883204     1.212454   -2.4173499    161.44554    3.2825475     1.867222    34.216727   -3060.7347    2501.5133 
268600000    319.80186   -159387.77   -159102.68   -154779.61    7.1899763    1.2147249   -2.4186758    161.45633    3.2667766    1.8840205    34.210337   -2971.4442     2485.537 
268610000    314.56865   -159223.67   -158935.21   -154682.88     7.180224    1.2238001   -2.4081902    161.43658    3.2422369    1.8884118    34.621974   -3106.6384    2523.3874 
268620000    315.87319   -159481.02   -159201.63   -154931.66    7.1704232    1.2201507   -2.4268261    161.45822    3.2648852    1.8952924     35.11811   -2969.3589    2631.5944 
268630000    317.67655   -159304.58    -159030.4   -154736.05    7.1430063    1.2247493   -2.4227999    161.46545    3.2818701    1.8762029    35.385282   -3112.9271     2584.405 
268640000    312.15297   -159281.64   -158989.83   -154770.16    7.1277338    1.2353607   -2.4325668    161.47497    3.2807666    1.8715324    34.800747   -3000.2462    2507.7011 
268650000    319.96437   -159329.77    -159033.1   -154707.83    7.1059464    1.2661358   -2.4317183    161.49021    3.2416441    1.8966788    34.917364   -3093.3822    2538.5178 
268660000     312.0976   -159328.38   -159050.99   -154832.07    7.0957771    1.2930284   -2.4465733    161.50813    3.2252294    1.9119518    34.711931   -3033.4361    2597.2941 
268670000    313.41904   -159249.68   -158968.12   -154731.33    7.0962932    1.2903465   -2.4503313    161.52702    3.2485934    1.9163406    34.783774   -3049.8807    2512.3417 
268680000    323.90617   -159225.27   -158919.41   -154540.85    7.1119288    1.2920018   -2.4682956    161.53616    3.2600275    1.9339617    34.739592   -3214.8832    2491.9638 
268690000    313.04196   -159324.07   -159047.04   -154815.34    7.1217375    1.3133686    -2.468196     161.5294    3.2522325    1.9436202    34.468296   -3113.4829    2663.4605 
268700000    319.59665   -159274.33   -158984.78   -154664.48    7.1231328    1.2925473   -2.4730116    161.53997    3.2454468    1.9406765    34.672571   -3134.0132    2532.7965 
268710000    315.86285   -159350.43   -159055.16   -154785.34    7.1444492    1.2798625   -2.4728649    161.54286    3.2462016    1.9408876    34.321939   -3043.7898    2563.3032 
268720000     321.1204   -159236.06      -158963    -154622.1    7.1229768    1.2869961   -2.4565901    161.56144    3.2334144    1.9421317    34.406823   -3139.9872    2497.2393 
268730000    315.21011   -159340.84   -159065.81   -154804.81    7.1259416    1.2795501   -2.4268524    161.57129    3.2283565    1.9496858     34.19201    -3040.206     2577.318 
268740000    316.30922   -159281.16   -159010.45   -154734.59    7.1332026    1.2880571   -2.4170522    161.56854    3.2249296    1.9566655    34.390041    -3087.822    2557.6893 
268750000    314.38586   -159316.69    -159046.6   -154796.74    7.1530516    1.2914089   -2.3983526    161.56196    3.2307898    1.9672978    34.029417   -3036.8409    2565.8516 
268760000    316.01319   -159351.47   -159084.06    -154812.2    7.1628096    1.2794272   -2.4105574    161.56722    3.2076238     1.978593    33.968788   -3022.6856    2570.3415 
268770000    314.64534   -159319.25   -159042.84   -154789.48    7.1687256    1.2703303   -2.3934121    161.56169    3.2197923    1.9919183    33.961288   -2971.8286    2496.2813 
268780000    316.84899   -159295.35   -159000.68   -154717.53    7.1743618    1.2587084   -2.3735279    161.57003    3.2227773    2.0332517    34.460087   -3031.9257    2482.0516 
268790000    315.81013   -159368.83      -159096   -154826.89    7.1740934    1.2448642   -2.3769875    161.57547    3.2042321     2.042931    34.321794   -2958.9354    2517.8516 
268800000    318.63124   -159391.51   -159111.36   -154804.11    7.1619573      1.23729    -2.370301    161.57358    3.1990836    2.0421004    34.837164   -3037.3688    2575.6292 
268810000    316.73903   -159256.28   -158973.65   -154691.98    7.1614244    1.2336418   -2.3673508    161.58507    3.1905135    2.0703733    34.636968   -3025.0364    2453.6799 
268820000    314.20706   -159378.71   -159091.43   -154843.98    7.1682179    1.2205568   -2.3415831    161.59818    3.2055151    2.0954683    34.471309   -3001.6045    2579.2068 
268830000    320.00209   -159185.55    -158905.4   -154579.62    7.1643724    1.2239742   -2.3526101    161.61534    3.1909192    2.0946653    34.715723   -3185.6307    2502.9149 
268840000     314.5213    -159270.4    -158975.3    -154723.6    7.1604491    1.1942553   -2.3623543     161.6164    3.1986731    2.0963396    34.134158   -3068.0335    2528.7451 
268850000    319.98472   -159213.74   -158937.34    -154611.8    7.1494072    1.1957222   -2.3624183    161.62008    3.1977785    2.0928354    34.574751   -3086.4042    2431.4648 
268860000    311.94519   -159374.68   -159080.74   -154863.87    7.1569194     1.192069   -2.3467847    161.61851    3.1803991    2.0867162     34.11871   -2995.3098    2593.4072 
268870000    310.19709   -159374.16   -159074.74   -154881.51    7.1651928    1.1811151   -2.3627789    161.60924    3.2119395     2.077805    34.127636   -2952.0667    2570.0094 
268880000    313.64548   -159288.98   -159000.65    -154760.8    7.1826483    1.1769164   -2.3462284    161.61559    3.2100671    2.0730153    34.444611   -3051.4969    2546.5049 
268890000     314.7818   -159219.23   -158929.03   -154673.82    7.1930433    1.1384221   -2.3569208    161.61596    3.2368102    2.0493968    34.917068   -3082.7524    2492.6144 
268900000    317.26989    -159344.3   -159054.23   -154765.39    7.1678817    1.1104275   -2.3521714    161.59389    3.2461232    2.0587421    35.440871   -3042.8225    2541.9897 
268910000     316.2272   -159299.13   -159014.02   -154739.27    7.1717403    1.1197609   -2.3437518    161.59715    3.2392147    2.0295985    34.695979   -3080.0853    2555.2603 
