thermo 1000
thermo_style custom step temp f_fix10 f_fix11 f_fix15
thermo_modify flush yes
run 10000000
WARNING: More than one compute ke/atom (../compute_ke_atom.cpp:55)
WARNING: More than one compute ke/atom (../compute_ke_atom.cpp:55)
WARNING: More than one compute ke/atom (../compute_ke_atom.cpp:55)
Per MPI rank memory allocation (min/avg/max) = 18.47 | 18.68 | 18.88 Mbytes
Step Temp f_fix10 f_fix11 f_fix15 
  550000    300.49958           -0           -0           -0 
  551000    300.19913   -884.31153    479.97591    479.35306 
  552000    299.32518   -1360.6263    633.03751     698.5353 
  553000    298.77762   -1502.2709    574.66256    952.37259 
  554000    300.42568   -1752.2168    606.87848    1128.9481 
  555000    301.79426   -1931.0746     472.5146    1041.1985 
  556000    299.17336   -1894.8675    812.63145    1240.8437 
  557000    300.24082   -1916.4535    837.78152      1106.88 
  558000    300.40938    -2138.871    879.46399    1331.0052 
  559000     299.6656   -1991.2119    1181.3492    1194.9742 
  560000    300.13033   -2166.4426    1157.9058    1353.1889 
  561000    300.75193     -2361.66    1333.6884    1098.0726 
  562000    298.91672   -2408.8839    1266.0277    1570.0457 
  563000    299.51892     -2483.82    1348.9179    1426.4689 
  564000    299.41333   -2413.4783    1310.5153    1472.5387 
  565000    300.04243   -2256.0866      1618.67    1188.6209 
  566000    300.28001   -2593.7376    1481.1886    1349.7247 
  567000    299.62039    -2475.965    1330.9026    1605.9427 
  568000    300.54632   -2778.6251     1401.087    1739.2801 
  569000    298.53961   -2613.7599    1410.8812    1727.0772 
  570000    299.16449     -2542.07    1432.1224    1718.0739 
  571000    298.91153   -2543.3621    1471.5588    1794.7951 
  572000      299.935    -2865.498    1673.2818    1911.4978 
  573000    298.98061   -2792.2815    1465.4626    2150.9483 
  574000    299.73612   -3020.7627    1456.1965    2187.0849 
  575000    298.72414   -2949.7534     1547.154    2127.0362 
  576000    300.35067   -3441.5021    1576.3779      2386.73 
  577000    298.46824   -3331.0462    1854.1562    2253.1051 
  578000    300.10113   -3399.8784    1836.8068     2108.274 
  579000    298.88279    -3194.993    1821.7141    2101.4508 
  580000    298.52811    -3158.979    1713.5291    2393.7882 
  581000    298.40232   -3390.0073    1623.8538    2589.8277 
  582000    297.68331   -3259.7868    1796.3175    2299.9564 
  583000    297.95524   -3228.9529    1922.2643    2430.4355 
  584000    298.62822   -3727.7368    2023.2162    2249.2146 
  585000     299.3063   -3563.6984    1891.4302     2425.988 
  586000    298.85191   -3569.4033    1744.5056    2578.0532 
  587000    299.93943   -3863.0237    1877.3013    2573.1063 
  588000    299.56056   -4032.1225    2055.5814     2607.532 
  589000    298.31874   -4356.2259    2083.6346    2733.2729 
  590000    299.25518    -4325.671    2336.8106     2642.555 
  591000    299.14716    -4481.261    2489.2193    2507.1861 
  592000    299.27998   -4386.9241    2451.9439    2451.9644 
  593000    298.80721   -4570.6278    2641.3509    2644.6695 
  594000    299.79768    -4504.751    2725.0747    2559.2624 
  595000     299.2117   -4605.4166    2778.0395    2489.5291 
  596000    299.09022   -4695.7479    2673.5826    2530.7157 
  597000    299.60896   -5042.0334    2681.9986    2534.4419 
  598000    299.64509   -4931.5346    2775.1353    2684.0788 
  599000    299.42866   -5021.3877    2705.8839    2605.5318 
  600000    300.72661   -4963.8423    2790.8538    2538.2011 
  601000     300.0377   -4838.9682    2970.5248    2526.9405 
  602000    299.37431   -5016.0253     2936.643    2447.1202 
  603000    299.73277    -5039.109    3018.6214    2506.8179 
  604000    300.17728   -5384.9241     3068.843    2716.0057 
  605000    299.74862    -5606.776    3001.1575    2711.2688 
  606000     299.3078   -5441.6854    3313.7076    2709.3634 
  607000    299.91897        -5335    3546.4986    2605.0683 
  608000    298.99582   -5306.4546     3448.621    2587.7328 
  609000    298.49213   -5354.6709    3414.1356    2753.9831 
  610000     298.9868   -5634.0389    3578.9407     2846.086 
  611000    299.57918   -5694.4631    3322.9102    2867.8058 
  612000    298.21646   -5574.8024    3555.7188     2934.605 
  613000    298.97245   -5803.5401    3624.5675     3036.709 
  614000    298.37974   -5800.3236    3709.0961    3091.2582 
  615000    299.31635   -5995.8018    3836.2055     3051.431 
  616000    298.33893   -6100.2941    3832.9941    3011.6593 
  617000    298.71827   -6253.3668    4028.1415    3102.7731 
  618000    297.65338   -6396.1177    3843.6906    3293.3096 
  619000    299.96778   -6556.9784     3937.821    3110.8539 
  620000    298.35719   -6409.8672    4049.9226    3241.3107 
  621000    299.72749    -6628.856     4089.606    3138.8049 
  622000     299.7502   -6567.3129    4014.2569      3193.09 
  623000    300.02678   -6732.1905    3760.0132    3478.6571 
  624000    298.72236   -6700.0367    3962.0451     3320.298 
  625000     297.8975   -6996.8204    4078.8833    3351.6134 
  626000    298.36236   -6846.7854    4185.6838     3387.562 
  627000    299.51445   -6842.7574    4050.4991    3368.8885 
  628000    298.58052   -6920.2158    4042.4819     3581.037 
  629000    298.53213    -7175.336    4265.9285    3576.1517 
  630000    299.02924   -7042.3409    4156.5683    3653.1199 
  631000    299.76891   -6955.2449    4095.8856    3571.9512 
  632000    299.42996   -7223.2992     4340.512    3470.5296 
  633000    298.16604   -7149.8799    4550.5814    3338.5693 
  634000    298.23336   -7360.4894    4756.2101    3163.2868 
  635000    299.34919   -7540.0031    4714.3091     3129.405 
  636000     299.9134   -7665.3864    4732.3988    3141.8907 
  637000    299.18347   -7693.8979    4806.3901    3360.5359 
  638000    299.63671    -7603.238    4861.7344    3225.5795 
  639000    298.13432   -7789.7708    5011.6607    3272.1642 
  640000    299.94592   -7966.7498    5019.8334    3149.7045 
  641000    299.04981   -7880.0278     5521.509     2868.122 
  642000    300.04651   -8383.9638    5425.5288    2931.6813 
  643000    298.65857   -8246.3361    5381.8487    2966.2944 
  644000    298.95904   -8255.4169    5587.0144    3071.0721 
  645000    301.40852   -8559.7457    5222.2421    3320.9271 
  646000    299.85232   -8575.2095    5310.3452    3334.5612 
  647000     299.9331   -8649.5959    5408.4402    3376.7968 
  648000    301.55402    -8755.413    5258.6752    3367.1049 
  649000    300.12368   -8605.0492    5422.4083     3461.409 
  650000    298.98793   -8585.4535    5468.2452    3566.2229 
  651000    299.13354   -8716.2999    5508.6559    3684.2866 
  652000    299.44911   -8690.5016    5618.7887    3607.4431 
  653000     299.1155   -8754.7155    5642.2852     3898.323 
  654000    298.91284   -8882.6866    5642.6243    3843.5434 
  655000    299.78623   -8940.4848    5627.9662    3838.6355 
  656000     298.6116   -8925.2907    5569.6013    3992.3832 
  657000    298.72155   -9028.5387    5480.7729    4454.5734 
  658000    297.64662   -8872.5868    5477.4281    4109.5225 
  659000    298.42753   -9101.6117    5497.1246    4327.5087 
  660000    298.64995   -9343.9261    5530.4305    4301.1778 
  661000    299.34376   -9094.6909    5710.4681    4257.2781 
  662000    299.50734   -9119.6223    5505.9349    4185.0625 
  663000    297.48982   -9090.7925    5787.9545    4216.3896 
  664000    298.83983   -9266.8527    5785.9479    4116.4272 
  665000    300.08768   -9449.2012    6026.3653     4075.739 
  666000    300.08399   -9482.9609    5929.8348    4062.1823 
  667000    298.85371   -9618.7736    5925.6102    4147.8169 
  668000    298.75246   -9500.1104    6118.0558     4344.953 
  669000     298.3078   -9465.5022    6066.1136    4389.3818 
  670000    298.58865   -9597.4088    6038.7086    4398.1677 
  671000     298.4871   -9860.2695    5963.9017    4650.1923 
  672000    298.89909   -9940.1733    5858.0327    4567.3354 
  673000    299.28947   -10051.545    5988.9239    4451.1862 
  674000    300.05914   -10220.215    6049.8921    4360.6169 
  675000    298.86394    -10154.83    5867.1236    4475.0015 
  676000    300.05218   -10246.922    6066.6928    4497.0141 
  677000    299.04072   -10234.584    6104.6002    4434.9628 
  678000     299.2524   -10184.643    6077.4539    4447.7503 
  679000    298.96013   -10121.845    6035.0479    4616.5407 
  680000    299.83192   -10410.603     5987.383    4690.2746 
  681000    299.62898   -10402.218     5970.919    4740.7718 
  682000    299.77214   -10897.701    5968.7388    4799.5445 
  683000    299.34874   -10578.928    5887.7526    4890.4978 
  684000    298.79199   -10511.063    5873.0633    5089.6303 
  685000       299.83   -10542.482    5784.8897    4962.6689 
  686000    300.11998   -10593.061    5916.5348    4994.0807 
  687000    300.01542   -10584.629    5875.1988    4972.5772 
  688000    299.49367   -10768.668    6153.2067    5146.5637 
  689000    299.26401   -10711.652     5988.637    5096.5122 
  690000    299.70776   -10906.135    6161.9385    5109.4481 
  691000    298.81105   -10920.978    6270.9286    5334.3353 
  692000    298.09894   -10662.906    6293.1121    5433.5902 
  693000    298.49717   -10767.099    6419.3363    5387.4163 
  694000    298.43771    -11081.45    6385.0077    5365.0113 
  695000    298.36519   -11111.614    6574.9228    5388.5288 
  696000     298.1908   -11077.805    6614.9491    5538.9406 
  697000    299.75415   -11466.451    6970.5432    5355.4149 
  698000    298.86628    -11395.37    6799.0578    5375.4099 
  699000    299.51479   -11586.684    6856.2535    5234.1823 
  700000    299.10883   -11539.272    6993.6442    5208.2002 
  701000    299.64953   -11753.226    7068.9978    5194.1675 
  702000    300.42961   -11790.846    7049.0549    5166.1666 
  703000    300.58028   -11835.169    7091.9592    5194.4377 
  704000    299.39928   -11678.474    7225.4842    5062.6433 
  705000    299.83713   -11801.628    7175.5863    5101.8022 
  706000    299.73451   -12236.954    7188.2819    5120.8145 
  707000    299.47386   -12066.735    7314.9621    5002.0624 
  708000     299.0372   -12124.305    7548.9132    4932.1833 
  709000    301.12518    -12078.87    7453.7388    4870.2021 
  710000    299.96863   -12278.368    7611.4396    4993.6085 
  711000    299.42164   -12414.897    7853.2719    4861.1429 
  712000    299.00167    -12387.44    7986.0172    5090.0155 
  713000     299.2399   -12783.241    8009.7619    5210.0852 
  714000    299.74395   -12566.428    7881.4037    5284.7644 
  715000    298.84144   -12741.379    7924.9806    5220.4839 
  716000    298.91267   -12821.592    7894.8284     5279.331 
  717000    298.11227   -12701.124    8079.8287    5462.1124 
  718000      298.932   -12935.967    8048.6791    5223.3334 
  719000     299.6088   -12954.165    7982.7124    5752.7075 
  720000    298.86904   -13186.202    7942.4138    5886.0151 
  721000     300.5528   -13192.744    8051.6737    5825.0668 
  722000    299.48579   -13222.774    7915.4004    5967.5794 
  723000    299.09224   -13228.158    7818.4189    6202.2452 
  724000    299.38375   -13466.304    7822.5193    6247.7108 
  725000    299.00314   -13438.724    7626.5972     6621.337 
  726000    298.79573    -13409.23    7752.3504    6402.4717 
  727000    299.39054   -13568.339    7947.8413    6386.7937 
  728000    299.60202   -13624.414     7765.569    6442.0776 
  729000    298.08927   -13373.366    7734.5228    6576.9969 
  730000    298.71653   -13421.879    7743.6686    6718.8475 
  731000    297.80759   -13651.849    7835.2866    6670.8905 
  732000    297.85241   -13510.515     8043.518    6521.1411 
  733000    298.87268   -13805.024    8250.4351    6346.3521 
  734000    298.14954   -14149.951    8327.0643    6351.4322 
  735000    298.88775    -14072.71    8158.5092    6501.1217 
  736000     298.3201   -14274.245    8349.3099    6630.1662 
  737000    298.90563   -14554.661    8317.4261    6684.0853 
  738000    299.80182   -14520.505    8409.4472    6704.7228 
  739000    301.33254   -14599.429     8536.611    6711.3741 
  740000    299.29542   -14430.705    8452.2259    6694.7653 
  741000    298.09278   -14548.142    8390.6955    6816.3135 
  742000    298.28488   -14231.185    8467.8268    6736.9795 
  743000    298.94478   -14536.787    8584.1262    6579.5882 
  744000    299.19548   -14516.991    8538.6313    6703.2589 
  745000    299.40355   -14430.099    8675.8468    6816.4388 
  746000    298.84632   -14698.481    8597.0165    6642.6664 
  747000    300.61633   -14756.853    8551.4116    6581.2848 
  748000    300.10902   -14864.654    8474.1634    6842.3009 
  749000    299.27665   -14915.448    8609.9887      6706.21 
  750000    300.04173   -14840.926    8720.7921    6668.8991 
  751000    299.77357   -15096.045     8975.302    6478.5854 
  752000    299.14395   -15185.495    8781.2011    6803.4081 
  753000    299.86965   -15342.854    8638.6856     7279.793 
  754000    300.06875    -15483.62    8665.8129    7297.7307 
  755000    298.92477   -15488.298    8696.6475    7347.8815 
  756000    299.79658   -15363.847    8693.1089    7326.0085 
  757000    298.40715   -15235.231    8753.4315    7270.7779 
  758000    298.20069   -15595.573    8882.8183    7237.3803 
  759000    299.20102   -15639.228    8835.8396    7372.4517 
  760000    298.92929   -15756.566    8742.7495    7640.5505 
  761000    299.49391   -15741.862    8594.8558    7905.7465 
  762000    298.78571   -16049.485    8428.1419    8188.3851 
  763000     299.2612   -15896.454    8374.7307    8177.1153 
  764000    298.99678   -16231.878    8239.2162    8485.9335 
  765000    299.82538   -16241.446    8398.3369    8381.6406 
  766000    298.44737   -16178.349    8603.7819    8341.1071 
  767000    298.58899   -16257.993    8495.0185    8616.0208 
  768000    299.87468   -16448.712    8495.7434    8612.9631 
  769000    299.35648   -16504.995    8511.5565    8562.6123 
  770000    298.94198   -16535.936    8458.9935    8621.6416 
  771000    299.24681   -16527.178     8413.644    8707.7987 
  772000    299.44931   -16471.367    8406.6945    8934.2237 
  773000    299.56954   -16614.728    8341.5949    8939.9374 
  774000    299.45819   -16495.876    8214.5229     9256.012 
  775000    297.92777   -16494.471    8017.7231     9379.768 
  776000    298.74664   -16761.079    7824.1285    9463.7441 
  777000    299.06708   -16512.497    7506.9846    9628.3924 
  778000    298.92232   -16681.269    7437.2184    9874.4265 
  779000    299.21842   -17032.633    7524.0991     9979.586 
  780000     300.2938   -17244.855    7385.6814    10211.502 
  781000    298.95057   -17281.708     7496.303    10194.396 
  782000    298.05456   -17027.511    7567.1686    10372.776 
  783000    297.70613   -16953.902    7645.4694    10421.994 
  784000    298.42771    -16976.04     7922.362    10222.502 
  785000    298.70825   -17187.718     8114.478    9931.2411 
  786000    300.76447    -17315.07    8276.4463    9774.5767 
  787000    298.81994   -17247.986    8365.2011    9667.8923 
  788000    298.19521   -17342.985    8470.4525    9777.1131 
  789000    297.65785   -17299.484    8736.5826    9866.4798 
  790000    297.68611   -17491.282    8753.9436     9792.947 
  791000    298.41658   -17704.526    8750.8016    9868.0805 
  792000    299.86318   -17844.062    8780.5768    9817.5598 
  793000    299.71812   -17720.814    8816.0851    9869.3205 
  794000    299.35704   -17742.922    8892.5658    9886.7526 
  795000    298.64556   -17867.737    8893.0047    10157.841 
  796000    299.04866   -17890.467     9006.958    9883.6592 
  797000    298.99138   -18058.636    9246.4573    9810.1175 
  798000    298.41655   -18083.842    9519.1371    9672.8615 
  799000    297.48174   -18058.517    9730.4816    9468.2998 
  800000     298.4408   -18274.001    9765.5144    9486.8201 
  801000    299.69364   -18185.488    9784.2889    9172.0444 
  802000    299.20864   -18159.592    9992.3581    8990.7391 
  803000     299.7577   -18464.581    9919.7032    9020.1053 
  804000    299.34094   -18541.664    9911.5468    9019.5769 
  805000    297.93218   -18332.661    9881.7617     9170.777 
  806000    299.03639   -18432.513    9997.4244    9161.3966 
  807000    300.19906    -18654.17    9811.6984    9277.4423 
  808000    299.29386   -18736.533    10079.177    9180.5493 
  809000    299.51653   -18853.828    10024.291    9338.9825 
  810000    300.75256   -18926.651    10046.752    9238.8249 
  811000    299.01168   -19171.226     10134.66    9273.9282 
  812000    301.40807   -19228.951    10253.945     9030.502 
  813000    301.41587   -19159.093     10296.07    8937.3309 
  814000    299.58959   -19391.924    10448.705    9030.1258 
  815000    300.41294   -19472.286    10441.874    9256.1182 
  816000    298.66058   -19249.478     10586.47    9296.5391 
  817000    298.93931   -19463.068    10737.181    9368.0219 
  818000    300.80106   -19414.806    10589.362    9353.6356 
  819000    300.20269   -19546.083    10580.672    9357.2828 
  820000    299.85886    -19578.02    10676.936      9403.68 
  821000    299.06652   -19494.099    10696.972    9442.5261 
  822000    299.98424   -19599.417    10580.868    9508.6183 
  823000    299.43566   -19539.677     10735.74    9717.5988 
  824000    299.06938   -19890.828    10840.132    9925.0376 
  825000    299.71417   -20099.183    10675.972    9769.8178 
  826000     299.6508   -20170.672    10851.336    9776.0635 
  827000    299.95686   -20235.843    10833.679    9702.3289 
  828000    299.90745   -20378.072    10916.969    9764.3313 
  829000    299.10498    -20383.08    10930.511    9805.9377 
  830000    300.51203   -20398.856    11166.866    9502.9246 
  831000    299.28414   -20520.937    11433.262    9607.6039 
  832000    298.72537   -20149.469    11423.231    9504.9813 
  833000    299.12804   -20299.093    11456.971    9638.5518 
  834000    299.43428   -20650.499    11435.919    9442.0122 
  835000    299.04336   -20339.568    11551.098    9553.3152 
  836000    299.27014   -20577.569     11669.16    9567.5081 
  837000    298.68786   -20507.412    11454.632    9698.6882 
  838000     299.1138    -20919.61    11263.608    9955.3073 
  839000    299.07556   -20651.262    11493.453    9996.5816 
  840000    298.20448   -20766.435    11530.149    10050.848 
  841000     298.6937   -20942.572    11644.872    9884.7249 
  842000    298.78952   -20919.294    11523.673    10271.089 
  843000    299.09762    -20848.91     11625.11    10145.876 
  844000    298.99692   -20866.758    11760.192    9991.5145 
  845000    299.25952   -20815.929    11606.847    10067.775 
  846000    299.27253   -20882.442    11757.298     10016.32 
  847000    298.43535   -20841.371    11718.461    10139.246 
  848000    298.92666   -20948.282    11732.437    10270.865 
  849000    297.79336   -21027.165    11638.965    10424.218 
  850000    298.92524   -21264.479     11723.07    10527.816 
  851000    298.03382   -21326.407    11891.747    10578.177 
  852000    298.96706    -21532.74     11829.14     10674.33 
  853000    298.82423   -21223.437    11452.358     10761.92 
  854000    298.60687   -21517.751    11455.759     10890.15 
  855000     299.6518   -21403.947    11883.746    10671.604 
  856000    297.59181    -21634.41    12113.786    10493.665 
  857000    299.36791   -21785.042    11874.208    10726.609 
  858000    298.19296   -21773.878    12061.524    10642.905 
  859000    298.95302   -21999.238    12058.592    10568.655 
  860000    299.20949   -21971.409    11858.616    10826.849 
  861000    298.56303   -22167.245    11957.425    10725.592 
  862000    299.63651   -22016.961    12105.873     10962.51 
  863000    298.52601   -22098.869    12044.722    10965.254 
  864000    299.05614   -22106.385     12045.06    10839.788 
  865000     298.1243    -21991.22    12165.781    10777.673 
  866000    298.69799    -22130.72    12222.574    10687.176 
  867000    298.70353   -22336.274    12254.245    10726.272 
  868000    300.17468    -22288.83    12301.072    10804.398 
  869000    300.23261   -22438.381    12364.011    10893.933 
  870000    298.76908   -22142.034     12445.71    11186.835 
  871000    299.47787   -22503.625    12282.016    11192.083 
  872000    299.66778   -22852.973    12439.016    11108.371 
  873000    299.09495   -22869.971    12270.037    11197.712 
  874000    299.84791   -22982.422    12362.098    11224.822 
  875000      300.502   -23022.608    12293.827    11279.426 
  876000    299.17075    -23080.13    12174.836    11465.929 
  877000    299.50547   -23028.907    12273.082    11401.124 
  878000    299.46463   -22795.406    12344.102    11488.535 
  879000    298.34163   -23011.979    12515.136    11642.795 
  880000     299.5631   -23313.812    12490.703    11575.503 
  881000     298.0854   -23142.479    12603.405    11475.166 
  882000    298.81779   -23430.797    12923.339    11404.008 
  883000    298.41943   -23244.194    12769.582    11344.362 
  884000    298.89228     -23614.1    13095.041    11225.934 
  885000    298.00657   -23522.062    13237.919     11365.31 
  886000    297.45884    -23578.73    13348.039    11401.701 
  887000    298.04743   -23688.435    13509.237    11390.027 
  888000    299.27145   -23659.862     13231.59    11449.594 
  889000    299.20358    -23700.03     13174.79    11486.415 
  890000    298.45139   -23838.033    13152.464    11692.825 
  891000    297.91902   -24057.664    13352.684    11493.673 
  892000    297.69373   -23805.668    13511.252    11727.657 
  893000    298.91017    -24028.96    13372.239    11709.133 
  894000    299.28738   -24248.524    13603.459    11550.246 
  895000     298.1686   -24228.491    13543.344    11747.725 
  896000    297.94087   -24257.478    13496.615    11791.278 
  897000     298.7749   -24286.813    13445.895    11776.335 
  898000     297.8456   -24240.124    13598.028    11530.286 
  899000    299.11912   -24554.135    13712.501    11745.894 
  900000    298.51598   -24568.581    13549.819    11855.914 
  901000    300.42217   -24578.051    13578.292    11954.039 
  902000     298.8334   -24788.331    13469.622    12072.241 
  903000    298.08327   -24849.962    13676.207    11974.367 
  904000    297.38629   -24903.123    13803.898    12063.977 
  905000    298.04095   -24752.768    13983.606     12029.81 
  906000    298.27739   -24753.821    13817.765    12150.773 
  907000    297.69076   -24851.077     13903.94    12090.142 
  908000    298.99357   -25011.387    14183.515    11751.841 
  909000    296.84786   -24931.176     14352.93    11896.917 
  910000    297.51181   -24924.163    14296.419    12004.858 
  911000    298.70089   -25457.323    14414.359    11893.906 
  912000    298.99711    -25325.02    14519.243    11895.797 
  913000    297.65529    -25049.79    14356.106    11904.501 
  914000    298.09528   -25205.132    14430.494    11977.345 
  915000    299.24207   -25583.641    14346.385    12131.068 
  916000    297.85561   -25558.346     14362.74      12074.6 
  917000    298.72067   -25575.106    14325.004    12255.335 
  918000    297.98858    -25709.08    14769.625    12017.778 
  919000    297.85311   -25595.735    14824.631    12076.175 
  920000    298.52963   -25854.144    15062.607    11844.413 
  921000    297.86704   -26010.535    14927.538    12152.976 
  922000    296.22924   -25821.553    14998.055    12245.273 
  923000    298.51009    -25769.92    14967.817    12051.845 
  924000    297.74704   -26024.266    15169.672    12183.709 
  925000    298.82625    -26183.87     15234.06    12022.508 
  926000    298.23117   -26208.431     15177.77    12169.535 
  927000    299.21786   -26409.389    15445.772    11867.549 
  928000    298.23981   -26471.128    15688.197    11843.803 
  929000    298.69816   -26596.554    15798.337     11766.86 
  930000    298.02454    -26424.74    15895.781    11955.623 
  931000    297.76794   -26876.036    15961.608    12012.678 
  932000    297.44056   -26454.318    15828.578    11927.882 
  933000    298.53749   -26621.487    15810.482    12029.905 
  934000    298.57611   -26861.515    15931.016    11991.603 
  935000    298.92453   -26928.257    15846.939    11856.137 
  936000    300.02864   -27192.115    15581.299    12039.695 
  937000    297.79657    -27058.49    15646.684    12184.637 
  938000    299.67614    -27271.12     15575.52    12617.899 
  939000    298.12322   -27224.327    15631.423    12462.532 
  940000    299.57939   -27562.092    15546.252    12555.375 
  941000     298.1173   -27430.688     15610.81    12653.596 
  942000    298.59004   -27570.864    15737.154     12662.38 
  943000    297.35072   -27543.847    15596.509    12882.058 
  944000    299.53993   -27520.469    15519.817    12830.832 
  945000    298.62614   -27670.158    15379.645     12983.11 
  946000    298.27103   -27784.068    15505.586    13014.046 
  947000    298.84409   -27847.878    15514.533    13119.202 
  948000    299.89847   -28212.964    15424.007    13302.404 
  949000    299.73669   -28252.565    15598.891    13054.714 
  950000    299.55837   -28162.301    15632.105    13048.414 
  951000    299.18643   -28355.265    15678.638    13327.197 
  952000    299.62425   -28556.487    15584.143    13344.382 
  953000    300.83352   -28516.587    15846.614     13361.57 
  954000    300.10843   -28508.692     15654.96    13366.516 
  955000     299.9992   -28727.717    15677.807     13397.98 
  956000    299.46437    -28781.47    15851.701    13300.935 
  957000    300.22007   -29049.359    15868.971    13371.711 
  958000    299.66634   -28895.911    15977.921     13520.84 
  959000    298.69094    -28748.12    16204.781    13207.048 
  960000    299.65474   -28812.976    16151.195    13176.396 
  961000    299.30537    -29081.48    16305.264    13109.354 
  962000    299.67977   -29037.113    16439.754    13019.035 
  963000    299.92891   -29235.768    16370.901    13383.423 
  964000    298.99513    -29590.87    16273.755    13557.811 
  965000    298.43425   -29536.707    16467.728     13568.87 
  966000    299.03363   -29644.483    16281.298    13621.745 
  967000    299.23048   -29616.478    16261.146    13625.892 
  968000    298.90609   -29553.753    16328.895    13762.844 
  969000    300.51548   -29430.579    16309.236    13818.232 
  970000    298.67887   -29539.846    16310.458      13805.4 
  971000    300.08544    -29679.92     16473.37    13830.036 
  972000    299.47663   -29698.326    16611.253    13800.469 
  973000     300.8008   -29535.904    16407.162    13931.719 
  974000    298.76434     -29780.3    16691.871    13889.403 
  975000    300.69549   -30075.972    16422.446    13730.437 
  976000    300.99722   -29916.781    16104.503    13831.718 
  977000    300.26149   -30042.117        16317    14006.184 
  978000    300.45586   -30105.025    16170.653    13966.933 
  979000    300.66366   -29910.714     16279.15    14143.718 
  980000    298.17799   -30128.869    16374.053    14120.137 
  981000    300.18401    -30236.18    16582.154    13943.121 
  982000    299.62755   -30025.162    16682.278    13822.129 
  983000    299.84971    -29987.33    16604.463    13719.739 
  984000    299.78299   -30233.162    16518.377    13803.993 
  985000     300.4267   -30373.636    16585.229     13920.79 
  986000    299.59128   -30395.826    16395.439    14115.039 
  987000    300.55481   -30744.682    16441.697    14199.775 
  988000    299.84257   -30573.278    16973.101    14081.193 
  989000    297.98158   -30771.394    17155.496    14025.078 
  990000    298.46809   -30742.647    17082.837    14177.164 
  991000    299.38395   -30745.363    17113.559     14004.74 
  992000    299.37588   -30874.719     17121.18     14213.93 
  993000    299.62483   -30868.602    17224.309    14422.144 
  994000    299.29816   -31072.032    17212.016    14335.665 
  995000      298.879   -30970.048    17036.243     14387.15 
  996000    300.00164   -30937.257    17131.458    14605.019 
  997000    298.92052   -31015.219    17214.586    14689.876 
  998000    298.38638    -31058.42    17075.491    14701.939 
  999000     300.4489   -31094.317    17180.747    14587.549 
 1000000    299.30157   -31418.622    17390.005    14530.352 
 1001000    300.61823   -31298.031    17227.457    14628.624 
 1002000    300.11171   -31615.847    17487.677    14554.724 
 1003000    299.42544   -31381.653    17645.928    14304.391 
 1004000    298.62774    -31460.88    17588.278    14539.064 
 1005000    299.22016    -31634.14    17608.499    14673.706 
 1006000    298.51264    -31577.13    17487.043      14881.7 
 1007000    299.48322   -31572.626    17310.342     15001.82 
 1008000    299.07433   -31560.723    17282.207      15137.8 
 1009000    298.98796   -31593.488    17397.448    15282.104 
 1010000    299.45354   -31663.314    17436.116    15131.817 
 1011000    299.24395   -31658.027    17387.986    15248.074 
 1012000    299.82015   -31668.872    17343.295    15346.262 
 1013000    300.59592   -31835.166    17226.738     15444.47 
 1014000    299.82824   -31992.375    17307.743    15283.531 
 1015000    300.08451   -31743.375    17165.362    15363.999 
 1016000     299.8726   -32087.336    17257.215    15567.258 
 1017000    299.93674   -32344.317    17243.402    15672.892 
 1018000    300.60042   -32345.354    17314.545    15516.683 
 1019000     301.2155   -32269.239     17419.44    15295.577 
 1020000    298.48835   -32418.867    17610.819    15587.028 
 1021000    298.55687   -32336.773     17787.79    15317.813 
 1022000    298.38271   -32470.018    17745.803     15510.45 
 1023000    300.32982   -32542.591    17698.239    15654.179 
 1024000    300.68215   -32551.056    17648.763    15659.501 
 1025000    299.20948   -32749.639    17887.746    15544.585 
 1026000    299.61813   -32656.154    17828.152    15720.014 
 1027000    299.79067   -32602.676    18054.997     15762.76 
 1028000     299.0219   -32645.936    18080.299    15503.355 
 1029000    297.97795   -32730.742    18249.921     15566.87 
 1030000    299.15759   -32890.171    18286.553    15448.891 
 1031000    298.50608   -33064.556    18285.813    15642.776 
 1032000    298.84398    -33149.93    18238.999    15698.132 
 1033000    300.36446   -33435.746    18373.882    15983.744 
 1034000    299.32454   -33404.732    18255.576    15932.662 
 1035000    299.01876   -33258.206    18103.578    16158.421 
 1036000     298.2729   -33302.859    18230.059    16001.503 
 1037000    299.97058   -33379.904    18179.983    16083.848 
 1038000    300.09006   -33495.224    18299.482    15984.365 
 1039000    298.53722    -33461.12    18084.508    16113.375 
 1040000    298.85296   -33398.562    18490.144    15869.737 
 1041000    299.38322   -33643.388    18494.523    15808.454 
 1042000    299.39225   -33719.068    18381.044    16035.791 
 1043000    299.88046    -33864.97    18756.615    15811.975 
 1044000     300.2044   -34193.639    18928.121    15601.795 
 1045000    299.84046   -34012.797    19344.428    15269.099 
 1046000    300.83356   -34305.331    19308.008    15334.517 
 1047000    299.04272   -34057.818    19403.887    15448.741 
 1048000    300.44413   -34495.327     19535.83    15374.971 
 1049000    299.17811   -34108.179    19561.952    15493.473 
 1050000    299.53972   -34352.775    19534.835     15511.65 
 1051000     299.1614   -34469.192    19825.602    15470.402 
 1052000    298.97565   -34667.601    19786.454    15441.967 
 1053000    300.54918   -34700.255     19744.43    15537.225 
 1054000    299.08974     -34588.5    19679.671    15777.083 
 1055000    300.48346   -35096.531    19651.865    15700.487 
 1056000    299.58463   -34926.133    20033.814    15502.169 
 1057000    299.48123     -35017.2    20014.671    15498.675 
 1058000    298.69739   -34931.894    20382.311    15322.994 
 1059000    300.33844   -35246.012    20214.284    15651.296 
 1060000    299.98595   -35240.603    20161.668    15563.277 
 1061000    300.05674    -35357.26    20012.571    15674.766 
 1062000    299.98179   -35524.399    20025.957    15745.735 
 1063000    298.92613   -35331.524    20070.638     15879.03 
 1064000    299.31905   -35363.318    20035.229    15835.334 
 1065000    299.52449   -35449.268    20055.039    15922.694 
 1066000    298.59129   -35528.994    20147.572    16006.103 
 1067000    299.89146    -35688.56    20264.014    15982.761 
 1068000    299.55177   -35581.133    20316.453    15584.287 
 1069000     298.5544   -35747.097    20245.891    16080.573 
 1070000    299.70128   -35601.237     20197.44    16153.376 
 1071000    299.09816    -35738.57    20174.992    16431.938 
 1072000    299.07599   -35954.266    19991.268    16567.355 
 1073000     300.1958    -35971.87    19964.347    16702.546 
 1074000    298.78751   -36132.731    20061.579    16869.486 
 1075000    299.79434   -36203.545     19968.58    16799.981 
 1076000    297.91394   -36123.289    19927.938    16937.587 
 1077000    299.09432   -36036.939    20023.482    16971.729 
 1078000    299.65272   -36403.375    19970.316    17081.435 
 1079000    300.91016   -36483.868    20194.826    16904.402 
 1080000    300.41113   -36278.003    20174.721    17047.092 
 1081000    300.33362   -36608.335    20275.588    17001.188 
 1082000    300.87434   -36611.581    20101.698    16768.943 
 1083000    300.01625   -36725.176    20109.779    16969.561 
 1084000    300.55789   -36832.167    20164.876     16778.49 
 1085000    300.96288   -36999.504    20108.439    17109.851 
 1086000    299.99046   -36924.868    20202.554    17149.989 
 1087000    300.02312   -36981.256    20237.874    17137.845 
 1088000      299.873   -37156.873    20603.995    16900.224 
 1089000    298.81382   -36970.198    20328.611    17099.633 
 1090000    300.71409     -37384.1    20430.545    17338.146 
 1091000    299.51746   -37265.993    20550.339    17378.993 
 1092000    300.51845   -37515.678    20513.704    17487.828 
 1093000     299.9721   -37581.159    20599.524    17456.432 
 1094000    299.93707   -37307.877    20628.154    17350.002 
 1095000    299.50725   -37503.513    20782.169    17426.683 
 1096000    299.73633    -37472.66    20900.933    17328.092 
 1097000    299.14167   -37507.899    21204.557    17035.599 
 1098000    299.83526   -37819.007    21088.666    17061.268 
 1099000    298.28912   -37676.434    21268.953     17134.41 
 1100000    298.88805   -37915.551    21224.328    17312.301 
 1101000     299.7664   -38208.806    21200.126    17220.448 
 1102000    300.19335    -38290.28    21374.734     17106.15 
 1103000    299.88612   -38241.712     21295.86    17284.477 
 1104000    299.12491   -38296.885    21374.251     17346.84 
 1105000    299.69344   -38440.339    21469.876    17482.295 
 1106000    299.58054   -38565.377    21594.621    17356.431 
 1107000    298.86214   -38524.293    21405.999    17390.829 
 1108000    299.07745   -38488.299    21655.958      17503.9 
 1109000    298.71053   -38630.358    21625.098    17575.752 
 1110000    299.11854     -38930.8    21896.851    17513.063 
 1111000    299.22727   -38839.846    21781.272    17500.534 
 1112000    300.29587   -38831.507     21920.95     17414.37 
 1113000    298.87885   -38799.163    22026.412    17489.263 
 1114000    299.24591   -39083.192    22125.569    17419.667 
 1115000     298.4448   -39105.537    21994.339     17549.84 
 1116000    299.04007     -39232.8    21980.614    17678.636 
 1117000    300.69188   -39234.737    21937.708    17544.795 
 1118000     301.0658   -39303.139    21896.969    17750.218 
 1119000    300.72746   -39317.101    21988.342    17519.444 
 1120000    298.92887   -39359.686     22134.53    17533.451 
 1121000    299.02401   -39616.974    22247.374    17524.454 
 1122000     299.6112   -39882.821    22271.024    17629.729 
 1123000    299.29481   -39595.991    22476.789    17614.891 
 1124000    300.65555    -39545.89    22769.043    17306.442 
 1125000    298.84824   -39559.396    22821.879    17449.195 
 1126000    299.68961   -39470.164    22633.196     17565.03 
 1127000    297.61415   -39763.826    22935.304    17539.594 
 1128000    299.57952   -39728.107    22913.689    17496.013 
 1129000     298.7459   -39971.373    22838.285    17754.424 
 1130000    298.78451   -39939.541    22671.621    17908.513 
 1131000    299.14404   -40075.253    22583.388    18053.796 
 1132000    299.68877   -40092.061    22447.955    18159.655 
 1133000    298.64038   -40087.148    22451.394    18448.249 
 1134000    299.71172   -40046.731    22168.123    18396.095 
 1135000    300.50288   -40256.464      22239.8    18469.613 
 1136000    297.85136   -40249.602    22424.482    18455.348 
 1137000     299.1964   -40376.864    22627.751    18217.327 
 1138000    298.05149   -40528.217    22483.608    18634.356 
 1139000    300.45072    -40648.16    22351.216    18716.491 
 1140000    298.84436    -40759.25    22464.652    19007.636 
 1141000    298.55291   -40339.509    22122.575    18900.489 
 1142000    298.63132   -40543.235    22315.005    19010.674 
 1143000    299.32913   -40530.127    22136.833    19162.348 
 1144000    299.24202   -40819.127    22549.559    18977.525 
 1145000    299.90133   -40917.215    22396.771    19078.307 
 1146000    300.48909   -41202.242    22425.929    19192.597 
 1147000    300.25033   -41184.864    22559.592    18996.374 
 1148000    299.61562   -41247.668    22571.657    19051.648 
 1149000    299.64486   -41070.559    22639.314    19047.112 
 1150000    300.10784   -41256.778    22536.206    18880.045 
 1151000    300.27456   -41592.956    22664.524    19253.539 
 1152000    298.24421   -41473.773    22669.745    19157.134 
 1153000    298.88875   -41707.285    22684.937    19356.094 
 1154000    300.32152   -41685.656    22545.902    19327.873 
 1155000    300.49423   -42005.101    22806.997    19220.533 
 1156000     300.5976   -41784.442    22854.073    19209.184 
 1157000    299.81241   -41970.046    22657.586    19284.447 
 1158000    300.25351   -41895.914    22755.795    19350.096 
 1159000    300.40285   -42026.041    22677.788    19478.759 
 1160000    300.66933   -42365.042    22854.498    19539.224 
 1161000    299.52973   -42345.342    23117.623    19161.763 
 1162000    302.21498   -42509.958     23210.08    19033.802 
 1163000    300.30949   -42567.291    23354.069    18973.047 
 1164000     299.7848   -42677.124    23612.091    18963.526 
 1165000    299.09263   -42464.236    23572.116    19201.216 
 1166000    300.14026   -42696.314    23493.745    19106.701 
 1167000    300.82736   -42731.932    23438.033     19346.04 
 1168000     301.6316    -42784.06    23434.927    19194.022 
 1169000    299.46151   -42835.366    23699.099    19273.767 
 1170000     299.5759   -42641.621    23840.334    19304.033 
 1171000     300.4685    -43040.84    23806.131     19174.65 
 1172000    301.69052   -42854.947    23722.287    19232.593 
 1173000    301.08233   -43171.851    23627.119    19349.306 
 1174000    300.90329   -43216.507    23871.659    19431.615 
 1175000     299.3124   -43211.598    23899.658    19332.379 
 1176000    300.24439   -43211.638    23815.052    19397.972 
 1177000    300.25176   -43428.356     23758.72    19403.905 
 1178000    301.63152   -43284.748    23923.759    19358.832 
 1179000     299.2643   -43205.355    23877.264     19458.04 
 1180000    300.05869   -43370.559    24022.196    19615.233 
 1181000    299.96709   -43373.677    24077.355    19568.762 
 1182000    299.68678   -43598.412    24170.512     19644.79 
 1183000     301.1529   -43630.932    24219.713    19567.668 
 1184000    300.37281   -43647.918     24346.65    19507.318 
 1185000    299.98965   -43350.046    24394.596    19580.966 
 1186000    301.02257   -43851.825    24192.623    19668.415 
 1187000     300.9718   -43901.604      24134.5    19806.022 
 1188000    299.79045   -43960.224    24118.276    20136.816 
 1189000    299.64357   -43815.236    24159.429    19878.181 
 1190000    300.08328   -43931.654    24424.235    19888.958 
 1191000    299.80892   -43985.643    24275.219    19876.785 
 1192000    300.59891   -44028.646     24218.57     19831.93 
 1193000    300.30699   -43974.556     24084.24    20103.718 
 1194000    300.31454   -44519.438    24212.973    20048.954 
 1195000    300.68009   -44288.052    24522.031    19823.751 
 1196000    299.61641     -44313.8    24626.382     19930.33 
 1197000     300.4237   -44675.206    24559.897    20080.738 
 1198000    299.25879   -44553.807    24716.319    20064.643 
 1199000    301.02752   -44750.212    24823.574    19987.621 
 1200000    301.18446   -44711.271    24643.826    19996.321 
 1201000    299.87266   -44873.179    24798.231    20233.322 
 1202000    300.66373    -44743.52    24655.883    20390.766 
 1203000    299.63064   -44961.887    24596.698    20488.953 
 1204000    299.45449   -44836.473    24626.522    20576.681 
 1205000    300.94457   -45042.745    24692.298    20582.137 
 1206000     300.5318   -45011.294    24600.119    20601.642 
 1207000    300.32552   -45176.549    24687.683    20874.036 
 1208000    300.97219    -45377.96    24764.643    20770.539 
 1209000    300.32263   -45134.747    24609.633    20778.523 
 1210000    300.35176    -45695.26    24870.685    20925.365 
 1211000    300.51369   -45562.949     24785.47    21037.671 
 1212000    300.58039   -45657.577    24928.381     20724.17 
 1213000    299.86807   -45748.927    25078.658    20730.161 
 1214000     300.1225   -45744.326    25006.115     20845.12 
 1215000    301.27366   -45770.919    25008.753    20731.796 
 1216000     301.1259   -46141.918    25019.254    20756.389 
 1217000    298.98256   -45889.059    25136.897    21076.709 
 1218000    299.91844   -45894.562    25112.811    21157.978 
 1219000    298.46691   -45755.664    25259.554    21244.461 
 1220000    299.58704   -45878.801    25201.914    21324.492 
 1221000    298.92444   -45892.982    25163.178    21211.654 
 1222000    300.54723   -46195.162     25187.66    21417.311 
 1223000     299.6689    -46139.44    25056.808     21394.43 
 1224000    299.84472   -46280.684     25019.01     21582.46 
 1225000    300.34911   -45973.801    25050.731    21667.901 
 1226000    298.70713   -46158.895    25089.724    21843.474 
 1227000    298.27786   -46433.025    25235.714    21767.564 
 1228000    298.02354   -46195.684    25098.142    21809.087 
 1229000    299.01195   -46365.418    25319.854    21799.587 
 1230000    299.31462   -46744.613    25387.754    21766.089 
 1231000    300.15263   -46591.638    25406.935    21669.513 
 1232000    298.92646   -46894.966    25597.068    21706.915 
 1233000    300.99564   -47151.268    25573.707    21648.118 
 1234000     298.1164   -46743.376    25582.132    21749.854 
 1235000    299.08018   -46874.929    25663.421    21588.668 
 1236000    299.18705   -47049.533    25783.393    21570.069 
 1237000    301.21353   -47151.588    25681.433    21581.046 
 1238000    297.86261   -47098.957    25772.396    21853.547 
 1239000    299.08527    -47279.84    25799.349    21810.403 
 1240000    299.29885   -47352.539    25874.988    21975.318 
 1241000    299.34053   -47385.245    25893.461    21928.505 
 1242000    300.26592   -47645.707    25915.158    21749.515 
 1243000    299.65803   -47772.386    26023.322    21791.297 
 1244000    299.98299    -47580.43    26148.101     21584.83 
 1245000    299.86977   -47500.378    26456.359    21355.923 
 1246000    299.80057   -47776.243    26450.147    21145.066 
 1247000    300.54888   -47902.838    26528.354    21287.671 
 1248000    300.36291   -47882.684    26653.378    21380.841 
 1249000    298.96833   -47736.402    26896.815     21181.01 
 1250000    299.28259   -47886.324    26892.406    21475.712 
 1251000    299.22752    -47930.55    27097.068    21335.909 
 1252000    299.31151   -48407.721    27102.739    21426.594 
 1253000    299.43211   -48447.444    27179.741    21570.461 
 1254000    298.30473   -48388.506    27020.585    21642.728 
 1255000    299.18643   -48519.304    26997.387    21701.184 
 1256000    300.16463   -48396.602    26821.969    21806.236 
 1257000    300.24225   -48430.465    27064.243     21754.34 
 1258000    300.55133   -48560.661    26978.612    21733.031 
 1259000    299.57341   -48333.456    27232.459    21819.038 
 1260000    298.72806   -48525.864    27041.322    21954.353 
 1261000    298.38851   -48511.653     27205.32    22037.949 
 1262000    299.38696   -48863.109    27138.089     22220.55 
 1263000    299.24615   -48847.984    27187.483    22124.845 
 1264000    301.23318   -49020.223    27328.415    21878.036 
 1265000    299.19979   -48691.287    27348.654    21812.635 
 1266000    299.22431   -49095.734    27313.236    21882.615 
 1267000    300.84355   -49388.673    27317.347    22077.467 
 1268000    299.76576   -49481.308    27362.647    22161.212 
 1269000    300.75683   -49580.472    27607.559    21956.904 
 1270000    300.32088   -49462.809    27643.335    21925.407 
 1271000     300.8339   -49755.054     27560.36    22075.374 
 1272000    298.88871   -49890.768    27511.456    22100.561 
 1273000    300.74218    -49688.01    27384.437    22389.767 
 1274000    299.12648   -49960.508    27322.553    22571.372 
 1275000    299.92426    -49982.36    27349.304    22566.163 
 1276000    300.34085   -50040.072    27319.553    22653.442 
 1277000    299.94104   -50233.176    27588.663    22627.804 
 1278000    300.16612    -50195.25    27270.488    22941.461 
 1279000    300.17084    -50468.89    27374.147    22828.967 
 1280000    300.85086   -50758.071     27547.44    22903.001 
 1281000    299.84215    -50661.49    27428.425     23025.05 
 1282000    300.77109   -50547.832    27571.141     22882.95 
 1283000    300.18838   -50684.436    27660.461    22798.899 
 1284000    300.24506   -50676.409    27494.446    23031.925 
 1285000     300.6717   -50776.083     27367.67     23094.07 
 1286000    299.28813   -50704.199    27572.047     23193.13 
 1287000     300.4577   -50898.023    27689.863    23075.045 
 1288000    300.06367   -50987.085    27624.978     23168.57 
 1289000    299.18769   -51099.935    27729.753    23432.245 
 1290000    299.32993   -51004.017    27587.568    23498.074 
 1291000    299.27735   -51184.001    27737.736      23381.9 
 1292000    299.47565   -51207.052    27836.711    23445.084 
 1293000     299.3066   -51168.629    28217.703    23132.775 
 1294000    299.59321   -51210.015    28114.748    23386.441 
 1295000    300.14266   -51441.404    28350.602    23326.437 
 1296000    301.01251   -51730.512    28120.783    23485.955 
 1297000    301.14951   -51652.055     28033.89    23583.975 
 1298000    300.58357   -51775.137    28085.771    23544.765 
 1299000    301.12519   -51901.466    28237.308    23426.357 
 1300000    300.71993   -51860.693    27980.868    23636.581 
 1301000    300.52204   -51664.072    28018.298    23683.073 
 1302000    300.82841   -51597.721    28169.303    23681.598 
 1303000    300.16207   -51686.574    28088.813    23875.052 
 1304000    300.33632   -51915.897    28000.284    23887.218 
 1305000    299.17894   -51920.862    27977.094    24175.408 
 1306000     299.2419   -51802.989    27818.613    24287.034 
 1307000    300.20628   -52392.474    27973.744    24188.926 
 1308000    298.93362   -52150.353    27848.151    24395.352 
 1309000    301.75203   -52292.119    27822.491    24260.563 
 1310000    301.00832   -52414.352    27908.228     24271.27 
 1311000    300.58129   -52578.392    28171.817    24249.294 
 1312000    298.68319   -52498.092    28167.173    24590.154 
 1313000    299.97932   -52584.541    28042.679    24541.536 
 1314000    299.50185   -52610.589    28070.337    24763.113 
 1315000    301.10993   -52746.914    28304.345      24625.4 
 1316000    298.93891   -52631.456    28275.386    24532.462 
 1317000    299.99167   -52685.584    28436.536    24473.163 
 1318000     300.7402   -52783.645    28478.922    24482.131 
 1319000    300.47984   -52857.258    28524.985    24302.207 
 1320000    300.86623   -52980.249    28737.568    24367.523 
 1321000    301.05609   -52887.543    28756.265    24295.981 
 1322000    298.41651   -52749.354    29029.726    24169.153 
 1323000    300.53266   -52890.051    29078.616    24484.117 
 1324000    300.32454   -52889.008    29226.015    24161.523 
 1325000    299.98362   -52810.148     29436.23    23981.826 
 1326000    299.13944   -53074.553    29393.904    24190.782 
 1327000    300.10993   -53100.351    29444.465    24223.039 
 1328000    301.12157    -53359.46    29205.664    24239.848 
 1329000    300.23736   -53092.405      29419.8    24245.211 
 1330000     299.5423   -53342.432    29371.139    24361.165 
 1331000    299.32451   -53258.594    29286.574    24403.506 
 1332000    298.63126   -53238.176    29361.032    24654.073 
 1333000    299.81402   -53490.498    29108.728    24952.139 
 1334000    300.96016   -53517.104    29008.179    25008.393 
 1335000    300.89553   -53699.349     28701.83    25340.931 
 1336000    300.43194   -53498.353    28453.781    25403.005 
 1337000    298.93458   -53508.596    28469.174    25499.302 
 1338000    301.14145   -53766.504    28648.213    25519.992 
 1339000    299.19903   -53551.211    28716.539    25538.834 
 1340000    298.83368   -53588.331     28861.48    25471.839 
 1341000    298.64167   -53611.445    28868.667    25481.518 
 1342000     300.7251   -54058.246    28864.779    25536.809 
 1343000    299.37313   -53672.224    29054.297    25481.386 
 1344000    299.00231   -54052.565    29221.982    25496.343 
 1345000    299.59303   -54049.036    29205.297    25391.536 
 1346000    299.12166   -54204.221    29269.998    25463.009 
 1347000    299.86589   -54132.066    29225.067    25358.486 
 1348000    300.78839   -54562.984    29241.334    25391.512 
 1349000    299.19497   -54159.582    29082.704    25625.884 
 1350000    300.24402   -54555.693    29334.646    25549.431 
 1351000    299.82218   -54384.977    29461.665    25349.861 
 1352000    300.47247   -54568.154    29512.237    25347.051 
 1353000    300.00978   -54630.671    29719.933    25266.978 
 1354000    298.56053    -54644.45    29776.275    25510.503 
 1355000    299.84189   -54657.929    29624.241    25640.556 
 1356000    299.11403   -54703.033    29622.048    25683.055 
 1357000    298.83568   -54751.655    29589.531    25887.136 
 1358000    298.50641   -54870.881    29799.263    25878.147 
 1359000    298.11286   -54594.801    29984.372    25800.357 
 1360000    299.76685   -54884.509    29950.928    25614.682 
 1361000    299.04213   -54785.169    30100.882    25557.305 
 1362000     299.0946   -54970.075    30280.321    25492.986 
 1363000    299.77954   -55056.558    30463.653    25369.291 
 1364000    299.09531   -55210.051    30412.577    25450.621 
 1365000    300.90509   -55284.268    30295.087    25461.328 
 1366000    299.14067   -55418.996    30451.463     25447.68 
 1367000    299.20818   -55305.464    30748.847    25545.218 
 1368000    298.88847   -55720.865    30566.567    25770.733 
 1369000    299.28525   -55607.812    30337.945    25863.402 
 1370000    299.96769   -55735.653    30421.193    25652.122 
 1371000    299.64655   -55765.192    30609.938    25911.584 
 1372000    299.12819   -55637.029    30444.367    26056.059 
 1373000    298.24465   -55550.323    30463.679    26039.827 
 1374000    298.33544   -55596.682    30626.676    26034.442 
 1375000    298.97656   -55463.251    30798.109    25701.989 
 1376000    298.98631   -55799.423    30918.001    25768.302 
 1377000    300.00932   -55682.022    30796.751    25918.208 
 1378000    298.51011   -55823.438    30634.263    26069.886 
 1379000     297.8617   -55628.545    30846.448    26092.821 
 1380000    298.42345   -55760.856     30937.11    26000.861 
 1381000    298.82022   -56036.206      31011.8    25864.879 
 1382000    299.07977    -56193.68    30823.278    25850.614 
 1383000    299.15144   -56122.945    30808.748    26025.816 
 1384000    298.67646   -56209.688    30922.518    26230.899 
 1385000    298.50253   -56430.638    31001.157    26095.632 
 1386000    298.28964   -56378.343    31072.204     26162.93 
 1387000    298.96381   -56647.063     31056.48     26274.04 
 1388000    298.90809    -56409.94    31143.821    26220.585 
 1389000    299.91283   -56712.802    31165.712    26209.655 
 1390000     299.7691   -56569.945     31098.24    26272.995 
 1391000    300.55917   -56709.329    31004.043    26556.314 
 1392000    299.47363   -56700.017    31091.511    26505.122 
 1393000    299.59601   -56815.337    31253.604    26268.068 
 1394000    299.70564   -56957.569    31145.613    26435.644 
 1395000    299.67771   -56895.826    31017.494    26584.877 
 1396000    300.57671   -57242.593    31095.101    26577.026 
 1397000    300.17047   -57344.451    31162.446    26638.542 
 1398000    300.45132   -57404.539    31127.517    26615.371 
 1399000    300.23526   -57497.656    31156.905    26786.042 
 1400000    299.22647    -57408.43    31485.155    26785.411 
 1401000    299.83998   -57569.937    31349.949    26733.454 
 1402000    299.22296    -57501.06    31368.648    26730.199 
 1403000    299.45695   -57612.554    31375.689    26913.301 
 1404000    299.80607   -57840.072    31151.223     26931.21 
 1405000    300.06072   -57946.148    31224.364    27083.773 
 1406000    300.75172    -58285.49    31174.563    27327.019 
 1407000    299.36194   -58331.908    31302.293    27326.115 
 1408000    299.93197   -58188.438    31160.427    27590.831 
 1409000    299.31136   -58373.413    31421.293    27321.168 
 1410000    300.49399   -58577.675    31313.584    27307.366 
 1411000    299.43931   -58670.294    31508.406    27397.775 
 1412000    300.47553   -58827.874    31692.969    27227.561 
 1413000    300.35361   -58718.835    31666.332    27364.877 
 1414000    299.69274   -58724.191    31667.359    27354.254 
 1415000    299.63321   -58735.002    31717.475    27232.031 
 1416000    301.11585   -58805.573    31900.877    27195.742 
 1417000    300.43333   -59025.346    31986.856    27029.921 
 1418000    298.55073    -58824.98    32069.558    27213.517 
 1419000    299.39239   -59023.893    32094.026    27344.164 
 1420000    299.77123   -58903.126    32235.541    27305.152 
 1421000    299.04589   -59177.321    32227.917    27346.217 
 1422000    299.42432   -59068.017    32269.399    27453.951 
 1423000    299.38763   -59506.289    32348.249    27388.617 
 1424000    299.94541   -59319.754    32133.149    27581.995 
 1425000    300.69448   -59678.808    32199.781    27525.919 
 1426000    300.14457   -59345.068    32247.508    27544.922 
 1427000    300.16897    -59308.14    32438.373    27537.684 
 1428000    298.81504   -59552.772    32579.037    27644.448 
 1429000    300.17962   -59593.662    32432.782     27605.02 
 1430000    299.66863   -60066.817    32629.568     27610.51 
 1431000    299.16271   -59844.779    32592.187    27546.342 
 1432000    299.90607   -60041.901    32719.167    27640.632 
 1433000    298.85341   -59930.742    32444.984    27826.221 
 1434000    299.36602    -60189.24    32688.773    27797.349 
 1435000    300.34097   -60354.548    32797.508     27768.11 
 1436000    299.62339   -60116.957    32589.835    27874.004 
 1437000     299.9519   -60148.248    32589.135    28032.763 
 1438000    298.52366    -60232.38    32633.155    28295.806 
 1439000    300.44964   -60461.013    32599.753    28301.349 
 1440000     299.4362   -60312.739    32685.461    28297.821 
 1441000    298.51492   -60297.499    32888.669    28133.579 
 1442000    299.29834   -60678.213    32849.046    28291.118 
 1443000    299.71635   -60513.598    32626.194    28314.719 
 1444000    298.65806   -60373.098    32849.501    28333.732 
 1445000    298.93365    -60475.52    33162.171    28304.232 
 1446000    299.31685   -60386.173    33342.437    28241.263 
 1447000    299.87419    -60702.49    33368.411    28271.276 
 1448000    298.05372    -60440.63    33350.929     28362.86 
 1449000    298.83561    -60693.98    33495.575    28095.242 
 1450000    299.48957   -60905.081    33606.957    28100.771 
 1451000    299.22734   -60928.162    33556.968    28176.517 
 1452000    299.10124   -60975.201    33418.886    28400.649 
 1453000     299.5965   -61407.604    33588.407    28347.951 
 1454000    299.72305   -61434.597    33421.638    28463.305 
 1455000    299.85759   -61426.198    33198.573    28507.372 
 1456000    299.12112   -61297.494     33234.27    28673.232 
 1457000    297.82696   -61160.863    33127.673    29051.912 
 1458000    297.10445   -61264.379    33358.709    29019.385 
 1459000    300.16668   -61427.602    33463.236    28785.403 
 1460000    299.33728   -61538.539    33526.114    28848.435 
 1461000    299.53356   -61596.927    33682.001    28862.698 
 1462000    298.26723   -61842.929    33655.237    29114.943 
 1463000    297.17392   -61712.233    33617.429    29273.267 
 1464000    298.77139   -61775.021    33591.485     29176.32 
 1465000    298.88598   -61971.404    33781.012    29244.078 
 1466000    298.77656   -62228.939    33649.095    29330.088 
 1467000    297.94086   -62032.864    33723.662    29241.057 
 1468000    298.58889   -62419.118    33668.417    29179.574 
 1469000    299.05864   -62423.722    33592.585    29390.638 
 1470000    297.92674   -62345.504     33786.37    29547.006 
 1471000    299.15457   -62427.263    33697.359    29309.578 
 1472000     299.3021   -62451.911    33895.721    29244.093 
 1473000    298.60274   -62572.237    33935.659    29465.681 
 1474000    297.68062   -62674.406    34118.653    29371.412 
 1475000    299.18701   -62636.844    34039.076     29242.67 
 1476000    298.34342    -62726.08     34012.15    29486.435 
 1477000    298.82395   -62818.639    34082.193    29413.782 
 1478000    298.74897   -62776.878    33948.552    29463.882 
 1479000    297.92831   -62979.788    34236.609    29506.957 
 1480000    298.54671   -63165.457    34345.493    29534.406 
 1481000    297.95777   -62906.336    34149.835    29682.703 
 1482000    299.48255   -63095.724    34292.579    29530.544 
 1483000    299.98221   -63010.015    34344.146    29699.749 
 1484000    298.31974   -63079.567    34476.539    29474.179 
 1485000    299.44025   -63284.912    34552.236      29462.7 
 1486000    299.74439   -63263.119    34541.001    29286.643 
 1487000    298.22178    -63481.62    34919.432    29242.343 
 1488000    298.59105   -63384.322    35094.801    29020.398 
 1489000    299.40772   -63443.375    35195.503    29101.931 
 1490000    299.51806   -63348.392    35042.307     29043.25 
 1491000    299.50777   -63727.256    35138.026    29222.067 
 1492000    298.90248   -63521.707     35199.39    28977.372 
 1493000    300.17623   -63840.045    35342.981     29018.01 
 1494000    298.65592   -63731.075    35572.432    29088.155 
 1495000    298.82496   -63719.239    35490.681    29339.101 
 1496000    298.69717   -63993.559    35596.196    29240.512 
 1497000     299.9248   -63961.867    35353.464    29260.669 
 1498000    298.95201   -63892.173    35369.241    29485.391 
 1499000    299.53261   -64176.243    35156.853    29634.519 
 1500000    299.15016   -64322.226    35419.556    29462.483 
 1501000     299.4709   -64305.746    35276.312    29546.417 
 1502000    298.94189   -64583.927    35638.126    29504.817 
 1503000    298.64776   -64612.715    35724.812    29406.579 
 1504000    299.75785   -64571.732     35498.81    29536.793 
 1505000    299.61244    -64401.59    35678.594    29482.438 
 1506000    298.09948   -64589.113    35591.806    29635.314 
 1507000    300.59132   -64828.283    35574.301     29687.35 
 1508000    298.62284   -64607.426    35482.491    29731.907 
 1509000    299.02839   -64702.359    35739.466      29786.8 
 1510000    299.34495   -64892.975    35915.945    29620.921 
 1511000     298.3119   -64690.449    35869.456    29836.807 
 1512000    299.13226   -64552.038    35727.004    29955.152 
 1513000    297.22762   -64673.849    35831.296    30015.799 
 1514000    298.24919   -64844.022    35685.525    30006.552 
 1515000     298.0922   -64923.062    35822.686    30146.378 
 1516000    298.89469   -65149.839    36058.543    29755.814 
 1517000    300.20969   -65517.046    36002.385    30053.953 
 1518000    299.26947   -65307.259    36085.739    30043.681 
 1519000    298.79407   -65611.393    36101.444    30311.679 
 1520000     298.8333   -65396.977    36024.734    30243.224 
 1521000    297.84779     -65492.9     35928.58    30565.556 
 1522000    300.66808    -65810.63    35592.691    30738.055 
 1523000    299.36063   -65989.363    35784.061    30627.444 
 1524000    299.33647   -65939.541    35796.671     30651.53 
 1525000    298.52841   -65942.791    36059.501    30694.912 
 1526000    300.66439   -66259.375    36034.355    30497.796 
 1527000    299.86508    -65982.14    36099.512    30429.911 
 1528000    299.80743   -65840.495    36276.904    30631.218 
 1529000    298.49857   -65983.738    36251.712    30634.341 
 1530000    299.62569   -66059.757    36247.184    30600.849 
 1531000    299.71024   -66111.552    36275.058    30536.323 
 1532000    299.48105   -66371.936     36109.17    30736.492 
 1533000    298.25038   -66039.336    36076.645    30982.389 
 1534000    299.42495   -66357.634    36310.312     31070.21 
 1535000    297.56787   -66332.223    36328.703    31210.878 
 1536000    297.91329   -66495.436    36198.407    31270.972 
 1537000    297.15106   -66518.791    36324.175    31485.222 
 1538000    297.76536   -66652.224    36335.274    31687.787 
 1539000    297.60017   -66786.394    36261.872    31814.925 
 1540000     298.6897   -66856.899    36148.998     31980.12 
 1541000    298.94259   -66954.094    36334.389    31814.436 
 1542000    297.88073   -66886.744    36505.863    31603.185 
 1543000    298.33676   -66988.502    36666.031    31607.545 
 1544000    298.51065   -67195.136    36785.421    31485.297 
 1545000    297.76467   -67060.763    36731.965     31393.27 
 1546000    297.88498   -66893.931    36861.901    31248.328 
 1547000    298.82506   -67118.374    36792.561    31237.834 
 1548000    298.45385   -67190.437    36948.462    31183.381 
 1549000    298.21239   -67084.017    37127.843    31205.767 
 1550000    298.43561   -67260.446    37074.531      31215.6 
 1551000    298.63879   -67572.369    36957.612    31638.666 
 1552000    297.83111   -67597.297    36891.817    31682.475 
 1553000    298.83005   -67472.698     36710.34     31954.78 
 1554000    298.23805   -67653.358     36796.45    31902.216 
 1555000    297.38025   -67323.966    36626.662    32182.611 
 1556000    298.07012   -67479.758    36565.155    32185.137 
 1557000    297.15378    -67514.29    36896.753    32031.184 
 1558000    297.56768   -67755.695      36986.7     32037.59 
 1559000    297.26752   -67800.405    36817.775    32179.904 
 1560000     297.7766   -68061.705    37053.733    32202.464 
 1561000    298.95074   -68126.501    36725.627    32341.304 
 1562000    298.05055    -68235.35     36563.42    32579.868 
 1563000     297.2804   -68109.164    36768.365    32744.335 
 1564000    299.05075   -68485.803    36716.948    32612.324 
 1565000    299.09222   -68564.829    36576.959    33026.901 
 1566000    298.57704   -68595.623    36599.968    32998.164 
 1567000    299.12186   -68768.264    36909.819    32765.832 
 1568000    299.40123   -68903.179     36802.46    32715.899 
 1569000    300.45051   -69075.611    36776.565    32698.329 
 1570000    299.19834   -68890.551    37051.195    32567.358 
 1571000    299.57215   -68902.076    36763.679     32611.27 
 1572000    297.77347   -68804.933    37027.666    32949.328 
 1573000    298.36014   -69043.025    37023.141    33001.615 
 1574000    297.86596   -69363.338    37262.162    32978.987 
 1575000    298.71257   -69294.528    37328.153    32800.729 
 1576000    298.67895    -69198.91    37412.554    32719.398 
 1577000    298.94817   -69120.274     37432.89    32766.564 
 1578000    300.21935   -69542.932    37559.609    32507.639 
 1579000    299.25153   -69576.431    37866.514    32638.672 
 1580000    298.90565   -69723.341    37837.118      32762.4 
 1581000    299.94945   -69622.195    37743.655    32572.361 
 1582000    300.04076   -69901.535    38042.177     32271.84 
 1583000    300.84901   -69779.466    38282.693    32218.467 
 1584000      300.047   -69884.708     38216.27    32361.345 
 1585000    301.40787   -69959.015    38233.913    32282.288 
 1586000    298.88024    -69655.52    38319.249    32241.167 
 1587000    298.65875    -69900.49    38583.913    31930.496 
 1588000    298.61169   -69889.239    38727.942    32236.382 
 1589000    298.82589   -70157.482    38674.609    32295.086 
 1590000    298.42874   -69878.639    38599.756    32131.328 
 1591000    300.47381   -70165.601    38533.406    32309.786 
 1592000    298.89259   -70024.936    38663.511     32487.86 
 1593000    298.22016    -70010.38     38819.89    32372.442 
 1594000    299.44128   -70414.665    38673.848    32363.477 
 1595000    298.74431   -70402.875     38812.22    32410.217 
 1596000    299.43817   -70438.202    38657.547    32558.964 
 1597000    299.75291   -70549.428    38729.273    32628.089 
 1598000    299.24553   -70770.141    38721.247    32858.346 
 1599000    299.30392     -70722.7    38618.698    32919.374 
 1600000    299.00703   -70556.424    38493.567    32950.773 
 1601000    299.44241   -71033.132    38777.427     32683.34 
 1602000    299.29739    -70997.78    38775.604    32816.316 
 1603000    299.22869   -71037.465    38797.209    33098.795 
 1604000    299.57924   -71463.955    38700.373    33078.713 
 1605000    300.58032   -71425.753    38850.857    32847.969 
 1606000    298.60428   -71470.145    38719.418    33229.418 
 1607000    300.92374   -71623.066    38622.841    33109.009 
 1608000    299.88716    -71715.27    38901.547    32940.355 
 1609000    299.02946   -71605.988     39068.46    32989.897 
 1610000    298.84695   -71571.013    38967.914    33238.131 
 1611000    298.62596   -71630.692    39217.619    33234.831 
 1612000     299.5381   -71685.463    39229.027    33183.983 
 1613000    299.80599   -71688.153    39279.089    33080.917 
 1614000    299.59432   -71826.097     39377.79    33104.633 
 1615000    299.70192   -71808.918     39378.52    33027.281 
 1616000    299.00005   -71837.175    39364.686    33262.077 
 1617000    299.10012   -71874.738    39157.157     33572.27 
 1618000    298.62935   -72138.016    39052.974    33690.573 
 1619000    300.04702    -72139.32    38987.188    33841.783 
 1620000    299.38672   -72295.732    39171.349    33684.432 
 1621000    299.90125   -72456.729    39301.097    33613.288 
 1622000    299.85238   -72626.277    39512.111    33673.191 
 1623000    298.93194   -72454.618     39544.24    33737.325 
 1624000    299.57687   -72750.998    39565.664    33811.063 
 1625000    299.60617   -72751.775     39615.43    33820.409 
 1626000    298.75638   -72706.689    39762.114    33925.529 
 1627000    299.08717   -72889.832      39698.8    33927.888 
 1628000    299.27438    -72789.12     39712.16    33949.562 
 1629000    299.33261   -72655.741    39752.879    34037.947 
 1630000    299.07841   -73081.022    39730.823    34163.769 
 1631000    299.02954   -73184.035    39776.126    34208.732 
 1632000    299.07469   -73128.653    39915.119    34129.169 
 1633000    299.48946   -73210.305    39963.461    34021.654 
 1634000    298.48524   -73169.492     39949.74    33983.463 
 1635000    299.04386   -73415.328    40254.465    33816.123 
 1636000    299.55141   -73264.274    40472.844    33731.089 
 1637000    298.74453   -73371.159    40436.504    33738.111 
 1638000    299.06569    -73317.41    40444.549    33812.026 
 1639000    299.83649   -73520.199    40532.671     33949.04 
 1640000    300.11052   -73492.453    40292.211    33985.197 
 1641000    300.13754   -73583.803    40321.858    33850.018 
 1642000     300.6551   -73779.384     40459.87    33950.774 
 1643000    299.32903   -73936.742    40715.072    33838.625 
 1644000    299.55353   -74024.948    40679.821    33972.909 
 1645000    299.37465   -73988.274    40591.216    33972.413 
 1646000    299.94239    -74313.34    40375.175    34253.295 
 1647000    299.34521   -74056.695    40426.614    34333.324 
 1648000      300.344    -74177.98     40075.83    34513.799 
 1649000    299.33371   -74022.626    40352.206    34533.596 
 1650000    299.88153   -74156.061    40444.895    34473.955 
 1651000    300.33539   -74103.619    40714.435    34238.567 
 1652000    299.82791   -74185.572    40643.491     34256.29 
 1653000    299.90508   -74250.907    40452.078    34531.653 
 1654000     300.9028   -74483.021     40442.05    34668.072 
 1655000    301.62436   -74648.385    40327.407    34598.554 
 1656000    299.38047   -74910.194    40603.532    34726.118 
 1657000    300.99563   -74995.563    40482.583    34800.948 
 1658000    299.36858   -74742.025    40463.017    34786.744 
 1659000    301.20285   -74917.638    40652.956     34752.64 
 1660000    300.43945    -74867.52     40690.88    34905.586 
 1661000    298.56034   -74872.126     40427.04    35168.729 
 1662000    298.95292   -74769.433    40545.684    35224.728 
 1663000    299.72303   -74970.386    40595.042    35364.673 
 1664000     300.3517   -75097.178    40566.499    35367.131 
 1665000    299.65839   -75201.819    40601.793    35380.023 
 1666000    298.70056   -75175.299    40765.878    35372.166 
 1667000      299.643    -75433.96    40636.013    35595.492 
 1668000     298.4135   -75329.218    40889.682    35493.079 
 1669000    298.95124   -75370.957    40976.259    35326.249 
 1670000    299.02525   -75367.093    40990.512    35197.204 
 1671000    298.62222   -75591.826    40979.269    35313.071 
 1672000    299.38614   -75616.255    41030.592    35135.281 
 1673000    299.03524   -75652.523    41208.593    35077.166 
 1674000    298.83627   -75757.985    41356.552    35224.644 
 1675000      299.254   -75618.403    41122.719     35133.43 
 1676000     301.2818     -75839.9    41334.409    35107.923 
 1677000    299.57572   -75748.689    41474.746    35143.892 
 1678000    298.83348   -75676.908    41629.917    34944.496 
 1679000    300.08729   -75951.661    41608.567    34905.815 
 1680000    300.19464   -75720.301    41411.299    35344.758 
 1681000    298.27194   -76021.549    41281.802     35541.65 
 1682000    298.69609   -76095.309     41598.79     35519.55 
 1683000    298.58777   -76260.454     41620.48    35581.813 
 1684000    298.85134   -76469.025    41502.272     35559.79 
 1685000    301.02683   -76778.827    41535.887    35462.534 
 1686000    300.59403   -76705.957    41561.949    35610.191 
 1687000    300.30338   -76915.744    41433.941    35625.884 
 1688000    298.94229   -76706.153    41560.922    35782.755 
 1689000    300.00325   -76788.658    41843.082    35689.731 
 1690000    300.71436   -77189.755    41799.533    35494.633 
 1691000    301.64982   -77319.973    41774.512    35435.108 
 1692000    300.92267   -77348.664    41903.313    35504.814 
 1693000    301.64889   -77328.408    42185.278    35231.596 
 1694000    299.12454   -77382.584     42265.27     35247.18 
 1695000    300.12249   -77388.186    42335.813     35368.07 
 1696000    299.63133   -77521.058     42638.46    35322.381 
 1697000    301.35573   -77761.384    42505.563    35550.232 
 1698000    299.55074   -77854.027    42626.128    35700.677 
 1699000    300.49918   -77717.943     42382.86    35759.863 
 1700000    298.57018   -77632.651    42603.182    35957.102 
 1701000    300.12103   -77843.923    42331.549    36062.704 
 1702000    299.51196   -77990.277    42432.264    35902.053 
 1703000    300.62726    -78219.89    42378.656     36040.36 
 1704000    299.99294   -78289.597     42213.44     36094.01 
 1705000    300.56967   -78204.402    42388.172    36213.638 
 1706000    302.59547   -78494.107     42113.61    36326.104 
 1707000    299.61977   -78433.672    42279.758    36211.019 
 1708000    300.85304   -78573.282    42371.602    36285.739 
 1709000    300.31537   -78495.663    42399.518    36230.943 
 1710000     300.5219    -78512.04    42436.439    36258.751 
 1711000    300.03556   -78440.472    42653.717    36188.645 
 1712000    300.42528   -78736.107    42754.043    36200.711 
 1713000    300.29167   -78622.056    42731.836    36228.207 
 1714000    300.69271    -78843.89     42701.12    36143.625 
 1715000    300.63118   -78905.721    43127.418    36148.326 
 1716000     300.3679   -79069.822     42961.56    36250.882 
 1717000     301.1393   -78731.263    42796.278     36493.57 
 1718000     300.3417   -78917.549    42835.736    36438.429 
 1719000     299.3779   -78878.125    43052.057    36301.454 
 1720000     299.3163   -78896.788    42910.203    36457.123 
 1721000    301.23148   -79014.513    43115.354    36273.532 
 1722000    300.37178   -79235.936    43000.879    36278.415 
 1723000    300.13748   -79023.945    42901.426    36444.547 
 1724000    299.68225   -79085.412    42991.692    36438.904 
 1725000    299.52869   -79142.691    42980.055    36578.318 
 1726000    300.35829   -79418.786    42988.964    36430.549 
 1727000    300.44716   -79390.446    43176.542    36404.975 
 1728000    299.59885   -79462.025    43254.336    36539.696 
 1729000    300.73618   -79335.752    43212.262      36518.3 
 1730000    298.66745   -79320.585    43234.279    36717.782 
 1731000    298.29161   -79350.316    43099.754    37103.198 
 1732000    298.70512   -79247.107    43093.948    37088.738 
 1733000     299.4199   -79317.787    43187.922    36870.105 
 1734000    298.76864   -79440.084    43415.811    36843.954 
 1735000    300.52631   -79732.072    43651.218    36846.632 
 1736000    299.18617   -79837.301    43675.965    36914.334 
 1737000    300.98127   -79915.248    43898.748    36598.274 
 1738000    300.12699    -80017.94    44006.968    36787.693 
 1739000    298.52003   -80294.638    44040.842    36522.254 
 1740000    299.90115   -80180.907    44161.748    36648.253 
 1741000    297.87321    -80049.32    44034.843    36848.441 
 1742000    298.82249   -80074.711    44247.693    36603.918 
 1743000     299.3095   -80298.089    44313.965    36658.739 
 1744000    299.52387   -80371.613    44275.231    36855.597 
 1745000     299.5953   -80546.123    44338.697    36749.681 
 1746000    298.87122   -80517.973    44654.849     36750.68 
 1747000    299.08677   -80602.573    44474.732    36713.264 
 1748000    299.38786    -80587.69    44593.063    36785.392 
 1749000     297.8821   -80688.062    44688.235     36662.99 
 1750000    300.05604   -80827.701    44777.201    36686.035 
 1751000    300.10908   -81084.758    44560.864    36899.609 
 1752000    299.70542   -80959.831    44851.664    36706.124 
 1753000    298.50665   -80969.292    44743.284    37090.793 
 1754000    298.89252   -81053.371    44689.194    37299.068 
 1755000     298.9385   -81253.312    44442.185    37477.515 
 1756000    299.37879   -81395.619    44475.988    37464.126 
 1757000    300.40124   -81289.158    44517.505    37276.235 
 1758000    299.59426   -81404.838    44623.823    37141.341 
 1759000    300.11534   -81550.536    45046.378    37162.384 
 1760000     299.2125   -81707.386    45209.588    37061.845 
 1761000    300.52261    -81664.18    45273.024    37089.524 
 1762000    299.02038   -81912.757    45528.241    36887.283 
 1763000    300.87552   -82141.698    45630.463    36728.786 
 1764000    300.47069   -81982.905    45578.411    36867.643 
 1765000    298.65536   -82167.829    45755.151      36868.1 
 1766000    299.61815   -82015.774    45830.197    36804.867 
 1767000    298.93628   -82179.616    45751.212    36941.867 
 1768000    299.63253   -82476.711    45950.911    37068.934 
 1769000    298.49169   -82311.044    45795.544    37344.328 
 1770000    299.07843   -82105.388      45686.9    37343.626 
 1771000    300.05137   -82340.893    46130.303     37148.45 
 1772000    299.55705   -82542.692    46215.693    37271.884 
 1773000    299.50707   -82601.216    45884.726    37265.604 
 1774000    299.06045   -82604.913    45729.723    37519.647 
 1775000    298.99825   -82755.111    45775.399    37751.629 
 1776000    298.40747   -82722.683    45682.479    37694.483 
 1777000    299.16455   -82697.323     45958.83      37508.1 
 1778000    299.81203   -82765.522    46076.565    37459.574 
 1779000    299.96024   -82696.608    46084.599    37506.785 
 1780000     298.7099   -82991.223     45973.44    37602.839 
 1781000    300.26732   -83276.162    45934.224    37591.486 
 1782000    301.05228   -83261.626    46187.203    37429.032 
 1783000    299.52357   -83309.376    46466.193    37466.991 
 1784000    299.26013   -83296.683    46356.504    37457.783 
 1785000    299.63318   -83129.641    46462.643    37255.763 
 1786000    299.88663   -83139.511    46576.991    37138.375 
 1787000    299.11572   -83281.896    46523.083     37437.05 
 1788000    298.76232   -83364.843    46395.889    37747.931 
 1789000    298.35956   -83583.863    46277.524    37874.598 
 1790000    298.97727   -83594.362    46337.191    37901.511 
 1791000    300.36706   -83622.039    46232.122    37863.555 
 1792000    298.80894   -83607.668    46556.669    37892.325 
 1793000    300.02188   -83861.882    46600.331     37800.05 
 1794000    299.95208   -83691.641    46430.694    38144.653 
 1795000    298.18867   -83773.725    46281.422    38301.673 
 1796000    299.68392   -83889.047    46221.184    38573.419 
 1797000    299.46466   -83984.484    46252.386    38609.816 
 1798000    298.14884   -83954.274    46306.808     38705.47 
 1799000     298.3619   -84027.284    46153.172    38736.687 
 1800000    298.43433   -84023.893    46545.509    38500.143 
 1801000    298.37342   -84169.463     46633.91    38584.181 
 1802000    298.40956   -84197.216     46422.77    38674.951 
 1803000    298.44224   -84295.258    46402.851    38991.553 
 1804000    298.37414   -84397.199    46247.552    39117.837 
 1805000    298.03138   -84452.751     46357.76    38971.452 
 1806000    298.30946   -84200.412    46325.531    39063.048 
 1807000    299.05277   -84562.616    46376.117    39151.764 
 1808000    298.38642   -84602.631    46444.549    39165.942 
 1809000    299.66504    -84969.43    46657.579    38999.344 
 1810000    298.47028   -84724.559    46733.259    38903.996 
 1811000    298.87907   -84957.201    46626.254    39156.497 
 1812000    300.12307   -85288.298    46749.123    39158.905 
 1813000    298.31895   -85074.459    46876.432    39362.027 
 1814000    299.04145   -85044.184    46936.837    39180.671 
 1815000    298.10572   -85124.809    47121.745    39297.004 
 1816000    299.29937   -85249.045    47399.532    38950.595 
 1817000    298.73226    -85326.22    47594.967    38869.144 
 1818000    299.41163    -85406.92     47537.22    38641.345 
 1819000    298.42021   -85419.362     47537.04    38717.852 
 1820000    298.31818   -85475.282    47470.217    38934.952 
 1821000    298.97608   -85708.115    47744.524     38903.32 
 1822000    300.16541    -85874.15    47761.766    38916.522 
 1823000    298.71766   -85769.214    47865.898    39026.805 
 1824000    299.24911   -85817.374    47810.914    39039.842 
 1825000    299.39201   -85975.285     47786.88    39108.739 
 1826000    297.77977   -85803.977    47893.429    39143.788 
 1827000    298.10445   -85979.711     47966.34    39210.781 
 1828000    297.93987   -85946.582    47954.719    39401.429 
 1829000    298.20266   -86028.284    48111.043    39345.856 
 1830000    298.40188   -86259.358    48128.602    39294.206 
 1831000    299.52138    -86413.64     48106.39    39434.428 
 1832000    298.67341   -86494.483    48399.024    39453.494 
[...]
10256000     299.8797   -655809.25    342118.08    315430.62 
10257000    299.98548   -655881.56    342134.54    315443.49 
10258000    299.45002   -655923.74    342091.29    315581.65 
10259000    300.40992   -655926.17    342175.07    315528.96 
10260000    299.11253      -656036    342396.89    315510.61 
10261000    301.22802   -656316.43    342174.27    315696.55 
10262000    298.45664   -656168.67    342175.13    315753.38 
10263000    299.06999   -656221.24    342323.34    315856.14 
10264000    299.89663   -656103.74    342359.82    315619.33 
10265000    299.11986   -656473.88    342816.75    315599.42 
10266000    299.20168   -656397.34    342897.03    315440.53 
10267000    299.12897   -656532.96    342909.54    315564.86 
10268000    299.17777   -656579.81    342792.97    315697.13 
10269000    299.38047   -656732.71    342909.47    315585.37 
10270000    300.77075   -656687.83    342592.14    315713.01 
10271000    298.36162   -656913.11       342740    316047.25 
10272000    298.62486   -656714.68    342881.71    316026.63 
10273000    298.22826   -656905.07    342912.64    315931.38 
10274000    299.76026   -656908.66    342851.59    315910.73 
10275000    299.03897   -656893.38    343004.44    315935.95 
10276000     297.6777   -657116.31    343056.95    316270.16 
10277000    298.92945   -657146.67    342991.83     316013.5 
10278000    299.10073   -657077.65    342794.27    316139.82 
10279000    299.69543    -657327.3    342906.58    316266.24 
10280000    299.14233    -657299.4    342844.32    316473.29 
10281000    297.83223   -657189.12    342756.08    316386.54 
10282000    298.72291   -657363.98     342829.7     316435.5 
10283000    299.52367   -657341.54     343002.7    316202.72 
10284000     297.9494   -657134.21    343001.16    316436.63 
10285000    298.78947   -657440.17    343087.42    316387.56 
10286000    299.29297   -657495.91    342918.79    316520.68 
10287000     299.7872   -657806.87    343081.18    316495.15 
10288000    298.32036   -657834.57    343311.46    316444.69 
10289000    299.25069   -657867.73    343339.77    316468.36 
10290000    299.32774   -658153.32    343523.19    316377.72 
10291000    299.38343   -658097.88     343679.4    316252.27 
10292000    299.92693   -658164.18    343697.24    316079.72 
10293000     299.9349   -658096.21    343664.56     316210.4 
10294000    298.63814   -658071.54    343553.25    316423.94 
10295000    299.10896   -657923.82    343558.56    316523.82 
10296000    299.58662   -658366.85       343615    316580.96 
10297000    298.90153    -658244.4    343574.18    316640.15 
10298000    299.34384   -658337.69    343550.71    316728.23 
10299000    299.09934   -658414.17    343476.93    316654.84 
10300000    299.33691    -658592.2    343622.27    316754.78 
10301000    298.05293    -658498.7    343397.51    317032.28 
10302000    297.43952   -658512.97    343460.92    316922.62 
10303000    299.83552   -658883.44    343540.83    316810.51 
10304000    300.00268   -658824.33    343767.79    316921.54 
10305000    299.02327   -658860.31    343561.15    317114.14 
10306000    298.20698    -658892.7    343826.23    317038.56 
10307000    298.91281   -658967.88    343865.71    316755.63 
10308000    297.85768      -658818    343857.45    317022.61 
10309000    300.17298   -658812.37    343806.82    316995.03 
10310000    297.83182   -659094.13    344024.57    317048.52 
10311000    298.55439   -659218.35    343866.06    317091.58 
10312000    299.95867   -659324.77    344043.97    316997.53 
10313000    299.40292   -659516.09    344176.86    317142.55 
10314000    298.98955    -659258.4    344136.05    317345.42 
10315000    299.73826   -659516.01    344022.01    317491.77 
10316000    299.54013    -659477.9    343963.78    317588.32 
10317000    299.95175   -659726.56    343976.79    317588.82 
10318000     299.7401   -659740.89    343792.61    317758.13 
10319000    298.17381   -659556.87    343969.74    317740.49 
10320000    299.27963   -659788.04    343858.65    318043.97 
10321000    298.61784    -659743.3    343931.31     318193.7 
10322000    297.22023   -659689.04    344011.34    318262.59 
10323000    299.18879   -659792.17    343896.15    318214.08 
10324000    299.57434   -660002.44    344041.51     318026.3 
10325000    298.70562   -660056.59    344237.34    317881.52 
10326000    298.96448   -660357.11    344145.41    318023.24 
10327000    299.79909   -660546.44    344387.71     317893.8 
10328000       299.56   -660405.93    344562.51    317872.72 
10329000    300.65786   -660856.32    344407.98    317773.91 
10330000    300.43048   -660795.33     344352.4    317939.63 
10331000    300.06907   -660756.13    344273.93    318114.78 
10332000    300.28481   -660780.04    344351.35    318027.06 
10333000     301.7425   -660914.03    344363.44    318112.49 
10334000    301.03757   -660945.85    344424.43    318161.85 
10335000    300.10605   -660939.19    344294.78    318224.04 
10336000    299.28261   -660993.76    344551.08     318155.1 
10337000    299.75655   -661055.52    344346.59    318285.64 
10338000    300.42346   -661215.35     344205.7    318491.91 
10339000    299.03827   -661095.38    344068.09    318802.62 
10340000    298.35153   -661092.22    344128.34    318827.32 
10341000     298.4033   -661039.39    344101.87     318836.2 
10342000    299.58799   -661236.12    344300.34    318926.24 
10343000    299.12167   -661336.52    344092.63    318947.26 
10344000    300.41388   -661244.37    344181.09    318920.17 
10345000    300.91538   -661335.98    344216.49    318765.31 
10346000    300.36454   -661743.49    344060.35    319059.17 
10347000    299.32347   -661568.77    344097.86    319280.56 
10348000    298.78312   -661598.61    344340.89    319142.66 
10349000    300.43804   -661673.69    344136.81    319064.21 
10350000    299.50999   -661674.34    344093.15    319439.23 
10351000    299.76301   -662173.67    344144.73    319713.65 
10352000    299.31565   -662040.46    344032.84    319760.95 
10353000    300.47383   -662035.48    344133.22    319640.58 
10354000    298.82635   -662116.72    344213.77    319796.29 
10355000    299.80468   -662362.14    344130.61    319715.31 
10356000     299.5127    -662331.5    344137.23    319824.84 
10357000    300.49038   -662298.31    344152.59    319905.91 
10358000    301.12665   -662365.03    343955.81    320061.49 
10359000    299.11247   -662619.46    344233.02    320034.34 
10360000    300.57017   -662763.42     344252.8    319968.48 
10361000    299.49077   -662841.86    344394.01    320021.51 
10362000    299.27086   -662628.07    344747.09    319718.86 
10363000     299.1552   -662803.47     344562.8    319814.18 
10364000    300.83717   -662871.38    344769.67    319779.25 
10365000    298.58256   -662976.88    344691.56     319869.7 
10366000    300.16722   -662881.76    344557.84    319752.47 
10367000    299.42218   -663264.96    344756.58    319925.35 
10368000    299.61713   -663190.77    344700.73    319897.09 
10369000    300.21896   -663271.44    344566.28    320163.48 
10370000     300.5428   -663697.57    344849.77    319892.37 
10371000    299.76246   -663547.01    345037.25    319873.33 
10372000    300.48161   -663540.13    345142.13    319815.12 
10373000    301.50457   -663845.31    345103.96    319863.42 
10374000    299.87487   -663652.89    345224.08    319947.05 
10375000    299.43324   -663526.72    345401.82    320141.38 
10376000    299.50421   -663706.66    345464.12    320103.95 
10377000    300.23524   -663701.17    345411.39    320098.08 
10378000    301.13034    -663752.2    345166.62    320396.85 
10379000    300.80268   -663850.38    345194.94    320485.17 
10380000    299.29887   -663889.13    345209.21    320438.05 
10381000    299.30626   -663908.72     345089.3     320699.3 
10382000    299.22285   -663756.66    345001.75    320667.98 
10383000    299.43538   -663798.98     345307.1    320653.01 
10384000     299.4543   -664016.44    345366.51    320372.25 
10385000     299.5616    -664071.4    345605.19    320458.74 
10386000    299.47774   -664139.96    345681.85     320404.9 
10387000    299.31997   -664490.23    345948.94    320359.26 
10388000     298.9847   -664388.09    345662.02    320464.26 
10389000    299.64612   -664712.59    345891.94    320468.84 
10390000    300.93451   -664662.96    345973.89    320251.76 
10391000    298.20292   -664735.74    345897.78    320489.09 
10392000    299.53488   -664881.82     346251.5    320370.79 
10393000    300.21499   -665037.01    346151.66    320450.69 
10394000    300.21368   -665111.94    346186.69    320289.82 
10395000    301.23781   -664837.63    346383.87    320106.38 
10396000    299.25278   -664799.34    346419.05    320179.85 
10397000    300.05968   -665001.69    346621.11     320424.2 
10398000    299.92171   -665148.35    346563.32    320286.59 
10399000      299.181    -665304.6    346624.66       320297 
10400000    300.65551   -665427.37    346558.94     320436.1 
10401000    301.04215   -665473.23    346485.88    320576.74 
10402000    300.08617   -665542.36    346392.07    320680.28 
10403000    299.24347    -665420.6    346128.84    320712.33 
10404000    300.27744   -665744.47    346304.01    320805.64 
10405000    300.49624   -665883.42    346461.05    320709.83 
10406000    300.33654    -665817.1    346617.66    320758.57 
10407000    300.57005   -665887.17    346687.51    320658.65 
10408000      300.501   -666273.65    346710.85    320889.67 
10409000    299.37544   -666181.29    346792.05    320946.39 
10410000    300.22804   -666320.35    346577.04    321036.72 
10411000    299.83154   -666543.51    346675.82    321100.82 
10412000    301.31265   -666649.91    346845.19    321242.44 
10413000    301.07294   -666667.75    346694.19    321109.34 
10414000    300.68697   -666768.34    346794.82    321246.68 
10415000    300.05679    -666885.5    346856.93    321252.82 
10416000    300.47345   -666995.23    346980.83    321311.95 
10417000    300.10276    -666910.5    346982.35     321416.5 
10418000    299.43589   -666690.17    346991.37    321386.84 
10419000    299.31734   -666887.05    346981.68    321506.08 
10420000      300.742    -667139.2    346939.28    321425.59 
10421000    299.82495   -667096.21    346986.72    321474.05 
10422000    300.22134   -667383.14    346791.99    321663.99 
10423000    300.79981   -667537.64    346852.35    321616.41 
10424000    300.41344   -667650.28    346915.43    321909.19 
10425000    299.15227   -667463.85    346906.75    322071.38 
10426000     299.2558   -667457.78    347101.58    322057.68 
10427000    297.74107   -667555.29    346975.36    322225.84 
10428000    299.06209   -667455.35    346873.47    322309.63 
10429000    300.18573   -667687.24    346789.68    322483.17 
10430000    298.49128   -667741.25    346828.83    322474.87 
10431000    299.76545   -667706.94    346538.83    322650.37 
10432000    299.63623   -667595.74    346681.37    322702.86 
10433000    298.51078   -667538.87    346787.16    322675.56 
10434000    299.85071   -667811.99    346831.54    322712.41 
10435000    299.98553   -667751.17    346780.67    323082.19 
10436000    297.93554   -667843.02    346658.88    323094.72 
10437000    298.87498   -668140.22    346561.31    323216.06 
10438000    299.32265   -668110.36    346534.91    323246.38 
10439000    300.02851   -668366.74    346446.44    323310.79 
10440000    299.23907   -668172.91    346353.32    323464.77 
10441000    299.88567   -668175.66    346386.89     323620.6 
10442000    299.10549   -668528.88    346456.68    323867.87 
10443000     299.6758   -668516.33    346491.51    323741.17 
10444000     298.3255   -668560.68    346594.36    323928.56 
10445000     298.4042   -668487.43    346552.35    323946.31 
10446000    298.91353   -668709.24    346776.18    323969.66 
10447000    299.35186   -669035.61     346597.4    323925.88 
10448000     298.8911   -669105.25    346443.93     324248.2 
10449000    299.27108   -669295.96    346779.64    324191.45 
10450000    298.92217    -668924.8    346758.39    324044.39 
10451000    299.31335   -669003.05    346822.39    324220.06 
10452000    298.72333   -668988.87    346802.66    324086.45 
10453000    299.38359   -669363.41    346841.77    324275.45 
10454000    299.87239   -669739.78    347021.41    324083.59 
10455000    299.69717   -669550.49    347072.23    323933.47 
10456000    300.75773   -669651.74    347182.53    323962.77 
10457000    300.04445   -669487.65    347208.75    324097.53 
10458000    299.77906   -669720.69    347379.45    324077.83 
10459000    300.33058   -669822.49    347269.89    324084.56 
10460000    299.89904    -669857.8     347483.6    323920.91 
10461000    299.06836   -669903.74    347519.32    324189.69 
10462000    299.51287    -669957.1     347577.5    324190.62 
10463000    300.22151   -670276.84    347383.48    324267.21 
10464000     299.1967   -670086.79    347575.07    324363.81 
10465000    298.02606   -670374.16    347541.88    324599.26 
10466000    300.13923   -670307.99    347296.79    324451.86 
10467000    301.21035   -670373.82    347563.87     324331.1 
10468000    300.66458   -670645.32    347652.53    324350.31 
10469000    299.78311   -670852.71    347823.72    324300.31 
10470000    299.56027   -670806.93    347860.55    324332.03 
10471000     300.4225   -670883.81    347806.49    324377.41 
10472000     299.4211   -670996.42    348155.53    324240.98 
10473000    299.52679   -671006.77    348135.12    324178.54 
10474000    301.03272   -671057.66    347876.19    324390.23 
10475000    300.54595   -671103.07    347759.27    324469.08 
10476000    301.07808   -671175.35    347724.73    324547.62 
10477000    300.74154   -671081.68    347879.49    324450.17 
10478000    300.55905   -671324.06    348002.49     324581.7 
10479000     300.7086   -671509.17    348027.53    324661.04 
10480000    300.57719   -671576.65    348203.98    324621.83 
10481000    301.52224   -671689.08    348209.92    324739.03 
10482000    300.76477   -671943.76    348404.01    324883.89 
10483000    300.52039   -671978.76     348272.1    324877.83 
10484000     300.4373   -671790.28    348167.74    324938.39 
10485000    300.04601   -672009.32    348253.01    325023.94 
10486000    301.40483   -672128.11    348156.42    324986.45 
10487000    300.26425   -672121.94    348455.06    324875.09 
10488000    301.32671   -672263.72    348573.53    324805.14 
10489000    300.43204    -672235.5    348657.68    324889.82 
10490000    300.00286   -672033.37    348607.61    325091.84 
10491000    300.88672   -672542.76    348425.31     325396.6 
10492000    300.73179   -672314.58     348602.6    325043.83 
10493000    301.25015   -672701.81     348633.7    325017.36 
10494000    300.48011   -672532.07     348671.8    325065.88 
10495000    300.09067   -672669.78    348777.64    324987.28 
10496000    300.68239   -672918.23    348910.11    324999.57 
10497000    301.18572    -672839.3    349093.25    324643.26 
10498000    300.73464   -672816.59     349115.1    324851.92 
10499000    301.01886   -673189.79    349040.82    325046.04 
10500000    300.47263   -673229.02    349182.24    325015.99 
10501000    299.98017    -673169.3    349293.76    325010.07 
10502000    299.72258   -673108.39    349027.55    325224.16 
10503000    300.10931   -673283.38    349345.57     325263.7 
10504000    300.54646   -673328.93    349399.93    325258.03 
10505000    298.79577   -673365.04    349676.51    325039.52 
10506000    298.70131   -673162.24    349533.84     325118.8 
10507000    299.63752   -673147.47    349584.48    325135.98 
10508000    300.22918   -673458.86    349700.02    325009.67 
10509000    300.70071   -673442.66    349574.15     325035.7 
10510000    300.24898   -673603.34    349666.71    325103.55 
10511000     301.0234   -673748.27    349517.63     325264.7 
10512000    300.81873   -673513.34    349692.38    325116.43 
10513000    300.45106   -673630.03    349703.64     325163.2 
10514000    300.73275   -673891.36    350075.69    325022.86 
10515000    300.48021   -673611.38    350236.69    324889.96 
10516000    300.39853   -673791.55    350181.43    324854.65 
10517000    300.60709   -674251.97    350317.17    324935.22 
10518000    299.57953   -674281.97    350303.09     325188.5 
10519000     301.3556   -674387.95    350310.98    325000.36 
10520000    301.05756   -674501.68     350259.3    325098.29 
10521000    299.34052   -674343.31    350356.39    325331.06 
10522000    299.94444   -674379.17    350522.28    325243.07 
10523000    299.78081   -674548.45     350768.5    325104.11 
10524000    300.22554   -674477.56    350675.79    325099.52 
10525000    298.97431   -674328.13    350788.79    325205.68 
10526000    300.17081   -674678.89    350624.21    325523.88 
10527000    299.05549   -674680.12    350767.25    325365.54 
10528000    299.79644   -674755.36    350843.86    325362.16 
10529000    299.22743   -674813.98    350939.59     325540.5 
10530000    299.23541   -674827.69    351078.26    325363.93 
10531000     298.9795   -674579.23    351149.84    325314.11 
10532000    299.61255   -674844.33       351071    325210.16 
10533000    300.48138   -674960.54    351344.93    325069.21 
10534000    300.47683   -674700.24    351383.84    325070.82 
10535000    300.58984   -674969.46    351208.15    325343.01 
10536000    299.54721   -674970.18    350942.93    325331.61 
10537000    299.18705   -674989.57    351215.93    325404.59 
10538000    298.24653   -674857.85    351161.49    325576.39 
10539000    300.21178   -674997.63    351327.65    325518.64 
10540000    300.23782   -675259.65    351477.25    325660.45 
10541000    299.74634   -675392.52    351521.33    325698.93 
10542000    299.71843   -675493.37    351690.14    325352.26 
10543000     298.7965   -675905.17    351666.87    325620.37 
10544000    299.81974   -675620.88    351429.75    325851.79 
10545000    300.84265   -675675.99    351495.53    325618.48 
10546000    301.25378   -675966.63    351739.17    325332.18 
10547000    299.53023   -675901.71    351802.04    325507.42 
10548000    300.26838   -675814.63    351984.47    325277.62 
10549000    299.38153   -675710.48    352213.55    325143.27 
10550000    299.15511   -675899.88    352098.06    325230.77 
Loop time of 813481 on 32 procs for 10000000 steps with 80000 atoms

Performance: 1.062 ns/day, 22.597 hours/ns, 12.293 timesteps/s
92.5% CPU use with 32 MPI tasks x 1 OpenMP threads

MPI task timing breakdown:
Section |  min time  |  avg time  |  max time  |%varavg| %total
---------------------------------------------------------------
Pair    | 2.9433e+05 | 3.0417e+05 | 3.1126e+05 | 862.1 | 37.39
Bond    | 41788      | 44921      | 48365      | 692.2 |  5.52
Neigh   | 8969.7     | 8988.7     | 9004.8     |  10.9 |  1.10
Comm    | 95050      | 1.025e+05  | 1.1558e+05 |1684.4 | 12.60
Output  | 33.794     | 33.809     | 33.864     |   0.2 |  0.00
Modify  | 3.5151e+05 | 3.5181e+05 | 3.5213e+05 |  37.0 | 43.25
Other   |            | 1061       |            |       |  0.13

Nlocal:    2500 ave 2531 max 2451 min
Histogram: 2 1 0 3 3 4 7 2 5 5
Nghost:    8467.72 ave 8525 max 8385 min
Histogram: 1 0 0 3 7 7 3 7 1 3
Neighs:    379444 ave 390384 max 363026 min
Histogram: 1 1 1 3 2 9 4 3 6 2

Total # of neighbors = 12142207
Ave neighs/atom = 151.778
Ave special neighs/atom = 5.97
Neighbor list builds = 200000
Dangerous builds not checked
unfix NVE

write_data data.${name}
write_data data.nve1
WARNING: More than one compute ke/atom (../compute_ke_atom.cpp:55)
WARNING: More than one compute ke/atom (../compute_ke_atom.cpp:55)
WARNING: More than one compute ke/atom (../compute_ke_atom.cpp:55)
write_restart res.${name}
write_restart res.nve1
WARNING: More than one compute ke/atom (../compute_ke_atom.cpp:55)
WARNING: More than one compute ke/atom (../compute_ke_atom.cpp:55)
WARNING: More than one compute ke/atom (../compute_ke_atom.cpp:55)
Total wall time: 230:02:01
