80000
Atoms. Timestep: 20000000
C 0.374399 18.639 41.3068
C 2.71358 19.7033 39.5922
C 5.29236 19.6645 38.1424
C 7.76032 21.5963 38.3203
C 9.12341 24.215 38.7651
C 8.82005 27.2573 38.9179
C 8.16998 29.1018 36.8117
C 7.11784 29.8142 34.0197
C 8.50871 29.8155 31.2165
C 10.317 27.7208 29.9418
C 13.2932 28.088 29.9181
C 15.9594 29.189 30.4974
C 17.0039 31.9412 30.7696
C 17.015 34.789 29.6411
C 16.8526 36.1223 26.7825
C 18.1451 36.222 24.2479
C 21.1243 35.7641 23.0451
C 23.9743 34.6583 23.8618
C 26.0609 34.2257 26.1504
C 27.8338 36.2247 28.1392
C 30.7309 37.2844 27.7276
C 31.9819 38.9931 25.8115
C 32.422 41.3141 23.9035
C 30.6687 43.8386 23.565
C 31.1447 46.8205 24.6493
C 33.1947 48.2552 26.4023
C 35.2588 50.3195 25.5122
C 38.3384 50.7725 24.9166
C 40.8651 51.5217 23.5804
C 42.9842 49.9332 22.1239
C 44.5146 48.2993 20.0598
C 45.4711 48.3007 17.3531
C 47.0174 50.2748 15.5096
C 49.9273 51.417 16.0612
C 52.8127 50.7994 16.8191
C 54.7769 48.4038 17.0288
C 56.8937 46.5704 18.1452
C 57.3365 45.5349 21.0402
C 55.6112 44.2576 23.2484
C 56.1756 44.2309 26.1585
C 57.5642 45.5648 28.4181
C 60.0774 46.6635 29.8693
C 63.0644 46.4091 30.0357
C 65.1733 44.1005 30.6326
C 65.5266 41.1631 30.7413
C 65.1497 38.4009 31.9047
C 64.9135 36.8733 34.4854
C 66.624 36.1251 37.0627
C 69.0639 35.0714 38.405
C 72.105 35.4256 37.6417
C 74.4938 34.7902 35.9933
C 76.3347 32.3281 35.1694
C 76.5745 29.2464 35.6391
C 78.0254 28.0132 37.9691
C 79.8491 27.961 40.3252
C 82.6955 28.8471 40.7574
C 85.4496 28.5388 39.5085
C 87.0241 27.1047 37.1777
C 87.2997 24.4162 35.7571
C 86.742 21.4093 36.3615
C 86.8052 19.4361 38.6953
C 88.8511 18.8327 40.4737
C 89.0185 17.8326 43.304
C 88.6455 15.6297 45.1297
C 87.5253 12.7061 45.3169
C 86.6564 10.6129 43.1777
C 83.76 10.6019 42.1127
C 80.6988 10.9098 42.887
C 78.776 9.13115 44.6082
C 77.9043 7.35189 47.0147
C 78.2657 4.20248 47.4024
C 79.178 1.25341 46.7742
C 77.8776 999.657 44.5499
C 75.5064 997.618 44.6455
C 73.9975 995.385 46.0451
C 71.0649 995.279 47.3431
C 68.0442 994.888 47.2961
C 65.5132 993.839 46.1723
C 64.7529 991.309 44.6505
C 63.7743 990.021 42.0755
C 63.1049 990.356 39.0294
C 62.9846 992.612 36.9773
C 62.3147 994.978 35.5468
C 62.5057 997.811 37.0055
C 64.7871 999.562 36.1688
C 66.1426 1.27388 34.3156
C 67.0272 0.666871 31.3581
C 66.6625 0.616424 28.1605
C 66.4079 998.12 26.1461
C 66.3407 995.162 25.3938
C 68.3921 992.762 25.0884
C 70.9308 991.047 25.2481
C 73.453 992.645 24.2325
C 75.333 994.916 23.6023
C 76.6994 996.145 21.2015
C 78.6756 996.019 18.9386
C 81.1544 994.748 17.8905
C 84.0046 993.836 18.3928
C 86.2522 994.889 20.2269
C 87.1447 997.502 21.8786
C 87.2208 0.452423 21.7976
C 87.9239 3.27895 20.3641
C 86.796 4.03742 17.7626
C 87.272 3.38391 14.8429
C 88.4124 1.98101 12.3709
C 91.0531 0.309681 12.6395
C 93.8078 999.862 13.5927
C 96.4256 1.00948 15.0806
C 98.6469 3.07275 15.6731
C 100.128 5.02273 13.9231
C 100.625 6.41506 11.2414
C 102.513 6.02897 8.87964
C 105.242 6.54007 7.9005
C 107.875 5.10148 8.50082
C 109.877 4.15178 10.4636
C 112.276 4.97659 12.2612
C 114.461 7.2857 12.3543
C 116.671 9.24594 11.4483
C 119.571 8.86814 10.9812
C 121.739 6.67767 10.9066
C 123.545 4.69282 11.9539
C 124.091 3.36504 14.7459
C 124.105 3.30639 17.7994
C 122.413 4.23318 20.222
C 122.863 5.88334 22.8146
C 124.076 8.75534 22.7936
C 123.905 11.9139 22.9738
C 122.446 14.6828 22.3293
C 120.337 16.2827 24.1549
C 119.934 17.0235 27.0705
C 121.658 17.8217 29.5684
C 122.301 16.7329 32.5071
C 121.504 14.4674 34.3535
C 119.309 12.0833 34.4298
C 116.412 12.4377 35.593
C 114.359 13.933 37.5298
C 114.292 14.8754 40.5175
C 114.888 17.6549 41.9849
C 114.552 20.7206 41.8291
C 112.381 22.406 40.8861
C 112.944 25.4377 40.0705
C 114.064 27.9798 38.9279
C 116.086 29.6273 40.5742
C 117.661 29.8353 43.2626
C 116.908 31.5607 45.9271
C 115.253 33.9916 46.5864
C 112.716 35.6141 46.494
C 110.739 37.1361 44.8955
C 107.667 37.3602 45.2336
C 104.682 37.4718 45.9756
C 102.818 38.2893 48.3794
C 101.114 40.1179 50.1593
C 98.6303 41.8827 50.0643
C 95.7919 42.4476 49.5184
C 92.8151 41.4971 49.8545
C 90.9204 39.9128 51.6691
C 90.5668 38.6664 54.5493
C 90.0694 38.6498 57.7071
C 89.8116 41.2188 59.619
C 87.3863 41.0879 61.5358
C 85.569 40.2188 63.865
C 83.3156 38.0327 64.0787
C 80.5038 36.9483 63.2589
C 78.2524 38.6601 62.0925
C 75.7296 39.9059 63.3722
C 72.6939 40.4541 63.0742
C 69.862 39.0092 62.95
C 68.2132 36.5725 64.2809
C 68.6138 34.1314 66.3265
C 67.5133 33.1499 68.9446
C 66.1644 34.42 71.2315
C 63.2613 35.3601 71.5783
C 60.6871 36.3844 70.1919
C 59.585 39.0725 68.9757
C 59.1378 42.1666 69.3016
C 59.1542 44.0481 71.6528
C 59.1111 44.2947 74.6312
C 56.8356 43.186 76.612
C 54.1654 42.9355 78.2456
C 51.3864 41.3734 78.5182
C 48.9094 41.1418 76.303
C 47.8946 41.8694 73.5372
C 46.1213 44.3032 73.3851
C 44.4049 46.7968 74.3748
C 41.4328 46.9206 74.6289
C 38.5794 46.4574 74.8258
C 36.3698 45.3793 72.9611
C 34.3752 45.2648 70.6485
C 33.2825 47.8987 69.5935
C 31.3721 50.1304 68.9258
C 31.5684 52.9911 68.2295
C 32.8653 55.5419 67.0768
C 33.2256 56.4144 64.3162
C 31.9045 56.853 61.6748
C 29.4288 55.7145 60.0779
C 26.3271 56.297 60.117
C 23.8984 57.9395 60.773
C 22.5406 60.4871 62.1434
C 23.2963 62.9382 63.7593
C 22.5188 65.1331 65.8621
N 998.568 20.5938 41.8722
N 0.635273 19.6187 41.3575
N 6.49119 17.4564 37.8342
N 9.28834 19.5542 37.8196
N 10.9878 23.3977 40.249
N 10.6679 28.5384 40.3021
N 7.97877 31.2585 38.1556
N 5.70949 31.9774 33.9151
N 6.84805 31.0296 29.5744
N 9.60279 25.1889 29.2361
N 13.7222 25.8338 28.7891
N 18.0512 27.9081 31.209
N 17.4442 31.6014 33.3449
N 16.6177 36.6782 31.4911
N 14.8041 37.7377 26.7076
N 16.4876 37.359 22.4655
N 21.6663 37.1824 20.9357
N 24.7161 32.4741 22.5473
N 26.2266 31.9141 25.0406
N 27.5542 37.2341 30.7483
N 32.8028 35.9804 28.7496
N 34.1339 38.6445 24.4338
N 33.4209 41.0792 21.617
N 28.6574 45.1251 22.243
N 28.6698 47.773 24.7905
N 33.8221 48.9017 28.8957
N 35.3604 49.8288 27.964
N 37.6035 52.9082 23.5349
N 41.3012 53.7407 22.5659
N 44.4002 48.9509 24.147
N 44.981 46.2947 21.8192
N 44.6281 47.0237 15.3164
N 46.0419 50.6951 13.0411
N 50.027 54.0418 16.3027
N 53.5592 53.0579 17.8462
N 55.8384 48.0841 14.6333
N 58.5167 46.273 16.3476
N 58.4916 43.2762 20.2259
N 54.4433 41.9954 22.6907
N 54.0984 42.8522 27.1975
N 55.9332 46.1588 30.5412
N 59.0351 47.8632 31.9748
N 64.5583 48.4059 29.8792
N 67.4467 45.7461 30.8504
N 67.2828 40.1567 29.1308
N 64.2334 36.9733 29.932
N 62.5179 35.8228 34.3677
N 65.059 34.4375 38.4805
N 68.2683 34.2344 40.9158
N 72.5699 37.465 39.1286
N 75.4321 36.883 34.7413
N 77.8733 33.4805 33.3631
N 75.2548 27.5096 34.1744
N 76.649 26.3846 36.2363
N 78.4227 27.6029 42.4696
N 81.9454 29.278 43.1676
N 86.9989 30.728 39.6067
N 88.3104 29.3652 36.9947
N 88.4574 25.8171 33.9326
N 84.827 20.2642 34.796
N 85.1117 18.7677 36.8534
N 91.4874 19.1182 40.1017
N 89.803 20.2853 43.9806
N 88.0183 17.0291 47.2806
N 88.1824 11.5569 47.6177
N 88.3282 8.90143 42.0838
N 84.7701 8.61107 40.7125
N 79.6537 11.5835 40.4251
N 77.1378 11.1159 45.3231
N 77.5509 8.77039 49.1346
N 79.2144 4.56189 49.8231
N 80.9585 0.864495 48.8075
N 78.6829 998.904 42.2041
N 76.6944 996.777 42.5741
N 74.4532 992.887 46.9364
N 71.5735 996.422 49.7155
N 66.792 997.061 48.1305
N 64.3823 996.091 47.1605
N 63.3448 990.107 46.8301
N 65.3351 988.146 42.8276
N 63.7664 988.17 37.8276
N 61.8042 990.936 35.3741
N 60.5216 994.967 33.5856
N 59.9506 998.725 37.0324
N 65.0837 1.25792 38.2658
N 67.2202 1.65754 36.5752
N 69.4164 1.89677 31.435
N 67.596 3.05731 27.9198
N 65.9925 999.678 24.2596
N 64.6518 995.583 23.4176
N 67.0986 990.633 24.743
N 70.6544 988.505 25.5885
N 75.3473 990.81 25.3447
N 77.0963 994.941 25.4416
N 76.4936 998.939 21.0468
N 78.108 998.433 18.31
N 80.5317 993.592 15.6013
N 84.0173 991.195 18.1842
N 88.1215 993.092 20.5579
N 89.428 996.362 22.9461
N 86.8815 0.810886 24.5516
N 85.8008 4.45117 21.3587
N 85.4087 6.18427 17.3243
N 85.9136 5.06468 13.1288
N 86.9252 1.03603 10.5626
N 90.8357 998.581 10.4704
N 95.1869 997.709 13.7685
N 96.6083 998.342 15.8019
N 100.123 3.45355 17.8805
N 100.752 4.95495 16.4778
N 100.085 8.85567 12.1241
N 100.971 4.68286 7.47464
N 105.541 8.2288 5.80242
N 108.41 5.47366 5.88537
N 109.639 1.77623 11.5541
N 112.129 3.5657 14.5843
N 113.764 9.33638 13.6871
N 116.75 11.6615 12.3139
N 120.064 10.4963 8.83692
N 122.449 6.52462 8.32277
N 123.405 2.41452 10.7029
N 126.454 2.44255 14.6323
N 126.182 1.76234 17.9515
N 120.365 2.79303 20.9474
N 121.807 5.2423 25.1124
N 125.581 9.04832 24.9641
N 125.643 13.2624 21.4899
N 122.275 15.2499 19.7295
N 117.832 16.2987 23.3374
N 117.667 18.5627 27.4012
N 123.651 19.6793 29.913
N 124.331 18.1609 33.4609
N 123.927 13.6041 35.1437
N 120.481 9.79838 35.2547
N 114.665 10.6891 34.763
N 112.191 12.2228 37.7444
N 112.108 13.7717 41.3554
N 116.989 17.4285 43.8158
N 116.955 21.209 42.9935
N 111.017 23.7196 42.9214
N 110.866 25.8278 38.854
N 114.553 28.8754 36.5897
N 117.036 31.044 38.7729
N 120.299 29.7724 42.8329
N 118.264 29.8826 47.3192
N 115.318 33.3929 49.1005
N 113.909 37.1503 48.2552
N 112.028 39.3526 44.3999
N 107.4 37.1248 42.6352
N 103.172 35.5386 45.0664
N 103.007 35.5994 48.9146
N 101.994 40.2409 52.4341
N 100.072 43.8451 51.2723
N 94.549 44.3623 48.071
N 91.8503 42.1451 47.5552
N 89.0081 38.4241 50.2515
N 89.8368 36.2287 54.28
N 90.8241 36.2288 57.9983
N 91.1206 43.2992 60.9375
N 87.2352 43.6854 61.1103
N 85.7505 39.0198 66.3913
N 83.3634 35.4872 65.3512
N 80.8524 34.4148 62.6681
N 78.7089 38.6054 59.4266
N 76.4583 42.4885 63.2437
N 71.8561 42.8931 63.59
N 67.9446 40.7541 62.4057
N 66.3506 36.6045 62.401
N 68.9503 31.6256 65.766
N 68.6894 31.726 70.8931
N 67.0158 35.1815 73.4091
N 62.6109 35.0064 74.1134
N 58.397 34.9948 69.3604
N 57.5176 37.6869 67.9268
N 58.1864 43.5564 67.3995
N 60.072 46.0803 70.0813
N 60.4258 46.3758 75.6588
N 57.5485 44.4958 78.8599
N 55.3323 42.2238 80.4402
N 49.8282 41.2324 80.6662
N 49.2916 38.5702 76.5803
N 47.6117 39.2629 72.941
N 46.8604 44.2564 70.7655
N 45.1624 49.0701 73.224
N 42.5751 48.4638 76.351
N 38.2272 46.2224 77.3529
N 35.7706 42.7307 73.3647
N 34.4356 42.9895 69.8887
N 32.3432 46.2747 67.7245
N 29.2953 50.9697 70.3607
N 30.0273 54.569 69.9087
N 32.9023 57.5331 68.6848
N 33.8338 58.8618 64.3199
N 32.6865 59.0993 60.6337
N 29.6307 53.3793 58.968
N 25.7167 53.8253 59.9239
N 21.2497 57.6867 60.624
N 21.8944 61.3771 59.7809
N 23.5663 64.6549 65.7135
N 22.6149 67.5132 66.2596
Au 47.6094 48.7462 67.3264
Au 47.2696 51.5721 67.1719
Au 45.2712 45.5345 66.5456
Au 42.6032 45.1626 65.6138
Au 49.1213 63.1506 35.0797
Au 39.7586 50.2905 31.9535
Au 54.6612 63.9227 37.0145
Au 40.4644 44.4229 32.2743
Au 66.7579 54.0537 41.3833
Au 52.5611 34.5539 36.6431
Au 67.4637 48.1861 41.7041
Au 58.101 35.326 38.5779
Au 50.1524 66.5196 39.8353
Au 35.9556 47.0198 35.0951
Au 68.4948 51.5552 46.4597
Au 54.298 32.0553 41.7196
Au 44.7837 66.7101 55.1309
Au 30.5869 47.2102 50.3907
Au 63.1262 51.7456 61.7553
Au 48.9294 32.2458 57.0151
Au 40.9807 63.4393 58.2726
Au 31.618 50.5793 55.1464
Au 46.5206 64.2115 60.2074
Au 32.3207 44.7142 55.4661
Au 58.6174 54.3425 64.5762
Au 44.4205 34.8427 59.836
Au 59.3232 48.4749 64.897
Au 49.9605 35.6148 61.7708
Au 46.8838 64.4369 36.4913
Au 51.3658 61.8554 33.6872
Au 37.5207 51.5763 33.365
Au 42.0026 48.9948 30.561
Au 55.1662 65.5913 39.384
Au 54.1413 62.2423 34.6566
Au 42.3562 46.0551 30.7217
Au 38.5759 42.8038 33.8446
Au 67.2635 55.7219 43.753
Au 66.2386 52.3728 39.0256
Au 66.5922 49.4331 39.1863
Au 57.2291 36.5725 36.06
Au 54.4535 36.1856 35.0907
Au 50.6732 32.9344 38.2136
Au 68.3187 46.9494 44.2326
Au 58.9534 34.0857 41.1056
Au 52.9073 66.8924 40.7973
Au 47.3987 66.1225 38.8734
Au 35.6153 49.9376 34.939
Au 36.3169 44.1049 35.2579
Au 68.1337 54.4701 46.2963
Au 51.5433 31.6826 40.7569
Au 68.8353 48.6373 46.6152
Au 57.0503 32.4501 42.6803
Au 47.5384 67.0828 56.0935
Au 42.0315 66.3153 54.1702
Au 40.1284 64.6797 55.7449
Au 30.763 51.816 52.6179
Au 30.2464 50.1281 50.2353
Au 30.948 44.2953 50.5542
Au 48.4086 65.831 58.6369
Au 31.8182 43.0435 53.0975
Au 60.5059 55.9616 63.0059
Au 62.7648 54.6605 61.5926
Au 43.9155 33.1741 57.4665
Au 46.1745 31.873 56.0532
Au 63.4664 48.8278 61.9115
Au 61.5611 47.1891 63.4855
Au 52.198 34.3285 60.3592
Au 51.6814 32.6406 57.9766
Au 41.8527 62.1929 60.7905
Au 32.4896 49.3323 57.6642
Au 44.6282 62.5798 61.7598
Au 32.8432 46.3925 57.8249
Au 56.7284 52.708 66.1298
Au 57.0791 49.7706 66.2895
Au 47.716 36.91 63.1632
Au 44.9434 36.5208 62.1949
Au 48.5654 57.0634 30.6269
Au 46.1374 53.7403 29.816
Au 59.2952 58.5641 34.3743
Au 47.5051 42.37 30.4377
Au 62.4252 56.0106 35.5047
Au 50.6351 39.8164 31.5681
Au 63.7929 44.6402 36.1264
Au 61.3703 41.3127 35.3175
Au 41.9104 60.8978 34.7851
Au 39.4878 57.5702 33.9762
Au 60.8158 63.5329 41.388
Au 41.8964 37.5463 35.0709
Au 63.9459 60.9793 42.5184
Au 45.0265 34.9927 36.2014
Au 66.3545 40.9553 43.6131
Au 63.9319 37.6278 42.8042
Au 43.9085 67.4264 44.0007
Au 32.1183 51.2322 40.0641
Au 52.0787 68.5651 46.8542
Au 33.1593 42.5786 40.5371
Au 67.3116 56.1375 52.3556
Au 48.3922 30.151 46.0386
Au 68.3483 47.4781 52.8273
Au 56.5624 31.2898 48.8921
Au 42.5193 67.4757 47.9584
Au 30.7292 51.2815 44.0218
Au 50.6895 68.6144 50.8119
Au 31.7701 42.6279 44.4949
Au 65.9343 56.2031 56.3173
Au 47.0031 30.2003 49.9963
Au 66.9634 47.5332 56.7864
Au 55.1733 31.339 52.8498
Au 35.1499 61.1376 54.0463
Au 32.7272 57.8101 53.2374
Au 54.0553 63.7727 60.6491
Au 35.1359 37.7861 54.3321
Au 57.1853 61.2191 61.7796
Au 38.2659 35.2325 55.4625
Au 59.5939 41.1952 62.8743
Au 57.1713 37.8676 62.0654
Au 37.7114 57.4527 61.533
Au 35.2888 54.1252 60.7241
Au 48.4466 58.949 65.2824
Au 36.6565 42.7548 61.3458
Au 51.5767 56.3954 66.4128
Au 39.7865 40.2012 62.4762
Au 52.9444 45.0251 67.0344
Au 50.5218 41.6975 66.2256
Au 51.1362 52.8511 29.3793
Au 59.1495 53.968 32.1779
Au 52.1572 44.3638 29.8433
Au 60.1704 45.4807 32.642
Au 37.773 60.5478 37.7397
Au 62.2054 63.9532 46.2729
Au 40.8858 34.6699 39.1545
Au 65.3182 38.0754 47.6877
Au 39.2644 65.421 44.6186
Au 32.2721 55.8168 42.2839
Au 55.6836 67.7096 50.3531
Au 34.364 38.4262 43.2347
Au 64.7178 60.3392 53.6158
Au 43.3981 31.0558 46.4974
Au 66.8096 42.9486 54.5666
Au 59.8173 33.3444 52.2319
Au 33.7635 60.69 49.1628
Au 58.196 64.0955 57.696
Au 36.8763 34.8121 50.5776
Au 61.3088 38.2176 59.1108
Au 38.9114 53.2847 64.2085
Au 46.9246 54.4016 67.0072
Au 39.9323 44.7974 64.6725
Au 47.9455 45.9143 67.4712
Au 46.3308 62.7105 34.1179
Au 48.5771 61.4166 32.7126
Au 39.4471 53.2554 31.8195
Au 41.6934 51.9616 30.4141
Au 57.4564 64.2612 38.0036
Au 56.9427 62.5827 35.6343
Au 40.8645 41.4716 32.4637
Au 42.7592 43.1011 30.8986
Au 66.3502 57.0052 41.2156
Au 65.8365 55.3267 38.8463
Au 49.7583 34.2157 35.6758
Au 51.653 35.8452 34.1106
Au 67.7676 45.2214 41.8599
Au 66.9023 46.4663 39.3307
Au 60.8839 35.7664 39.5615
Au 60.0186 37.0112 37.0323
Au 50.6478 68.1826 42.2632
Au 47.8878 67.7979 41.2993
Au 34.056 45.3931 36.7234
Au 33.7043 48.3164 36.5635
Au 69.3246 50.3089 49.0412
Au 68.973 53.2322 48.8814
Au 55.1412 30.8274 44.3055
Au 52.3811 30.4427 43.3415
Au 46.7006 68.3227 53.5089
Au 43.9406 67.938 52.545
Au 30.1088 45.5331 47.9691
Au 29.7571 48.4565 47.8092
Au 65.3774 50.449 60.2869
Au 65.0258 53.3723 60.1271
Au 51.1938 30.9675 55.5516
Au 48.434 30.5828 54.5872
Au 39.0632 61.7542 59.8182
Au 38.1979 62.999 57.289
Au 32.1795 52.2991 57.5198
Au 31.3142 53.544 54.9906
Au 47.4287 62.9202 62.7399
Au 49.3234 64.5497 61.1747
Au 33.2453 43.4387 58.0042
Au 32.7316 41.7602 55.6348
Au 56.3226 55.6642 65.9519
Au 58.2172 57.2938 64.3867
Au 42.1391 36.1827 61.2162
Au 41.6254 34.5042 58.8469
Au 57.3884 46.8038 66.4363
Au 59.6347 45.51 65.031
Au 50.4929 37.3492 64.1715
Au 52.751 36.0549 62.7326
Au 53.4404 56.0784 30.1098
Au 48.7835 49.6819 28.5549
Au 56.1809 56.4604 31.0669
Au 49.1326 46.7793 28.7136
Pt 62.1978 51.5516 33.2399
Pt 55.1495 41.8705 30.8866
Pt 62.5469 48.649 33.3986
Pt 57.8899 42.2524 31.8437
Pt 40.0908 63.7674 38.4617
Pt 35.4338 57.3708 36.9068
Pt 59.2338 66.4356 45.1476
Pt 37.8727 37.0953 38.0153
Pt 65.2506 61.5267 47.3206
Pt 43.8895 32.1865 40.1883
Pt 67.6895 41.2512 48.4291
Pt 63.0326 34.8546 46.8742
Pt 40.6008 65.434 40.8142
Pt 33.5525 55.7529 38.4609
Pt 57.0034 67.7202 46.543
Pt 35.6423 38.3799 39.4107
Pt 66.1098 60.2908 49.8318
Pt 44.7487 30.9505 42.6995
Pt 68.1996 42.9178 50.7816
Pt 61.1513 33.2367 48.4282
Pt 37.9305 65.5287 48.4222
Pt 30.8822 55.8476 46.0689
Pt 54.333 67.8149 54.151
Pt 32.9719 38.4746 47.0187
Pt 63.4395 60.3855 57.4398
Pt 42.0784 31.0452 50.3075
Pt 65.5292 43.0125 58.3896
Pt 58.4809 33.3314 56.0362
Pt 36.0492 63.9108 49.9763
Pt 31.3922 57.5142 48.4214
Pt 55.1922 66.5789 56.6622
Pt 33.8311 37.2386 49.5299
Pt 61.2091 61.6701 58.8352
Pt 39.848 32.3298 51.7029
Pt 63.648 41.3946 59.9437
Pt 58.991 34.998 58.3888
Pt 41.1918 56.5129 65.0068
Pt 36.5348 50.1164 63.4519
Pt 43.9323 56.8949 65.9639
Pt 36.884 47.2138 63.6106
Pt 49.9492 51.9861 68.1369
Pt 42.9009 42.305 65.7836
Pt 50.2983 49.0835 68.2956
Pt 45.6413 42.687 66.7407
Pt 44.6268 65.7284 37.9109
Pt 35.2697 52.8761 34.7867
Pt 55.6798 67.269 41.7713
Pt 36.6779 41.1691 35.4267
Pt 67.7693 57.4059 46.1374
Pt 48.7673 31.3061 39.7928
Pt 69.1775 45.699 46.7775
Pt 59.8204 32.8467 43.6532
Pt 39.2614 65.9187 53.1973
Pt 29.9043 53.0664 50.073
Pt 50.3144 67.4593 57.0577
Pt 31.3125 41.3594 50.7131
Pt 62.4038 57.5963 61.4238
Pt 43.4019 31.4964 55.0792
Pt 63.8121 45.8893 62.0638
Pt 54.455 33.037 58.9396
Pt 53.6226 60.5471 32.2828
Pt 44.2655 47.6948 29.1586
Pt 65.7121 50.6841 36.649
Pt 56.355 37.8318 33.5247
Pt 42.7268 60.9336 63.3257
Pt 33.3697 48.0813 60.2015
Pt 54.8162 51.0706 67.6919
Pt 45.4591 38.2183 64.5676
Pt 50.8405 60.1237 31.3111
Pt 43.9438 50.6508 29.0083
Pt 56.4135 60.9005 33.2575
Pt 44.6538 44.748 29.331
Pt 65.3242 53.6308 36.4756
Pt 66.0342 47.7281 36.7983
Pt 59.1375 38.2551 34.4955
Pt 53.5645 37.4783 32.5491
Pt 39.9443 60.5103 62.355
Pt 33.0475 51.0373 60.0522
Pt 45.5173 61.287 64.3014
Pt 33.7576 45.1346 60.3749
Pt 54.428 54.0174 67.5195
Pt 55.138 48.1146 67.8422
Pt 48.2413 38.6417 65.5394
Pt 42.6683 37.8649 63.593
Pt 44.0851 64.0146 35.5374
Pt 37.1883 54.5416 33.2347
Pt 57.9584 65.9483 40.3828
Pt 38.9558 39.8476 34.038
Pt 66.8691 58.6786 43.6009
Pt 47.8665 32.5779 37.2561
Pt 68.6366 43.9845 44.4043
Pt 61.7398 34.5116 42.1015
Pt 45.1223 67.4038 40.3215
Pt 33.3626 51.2514 36.3951
Pt 53.4226 68.5607 43.2205
Pt 34.4201 42.46 36.8757
Pt 68.6163 56.1651 48.7077
Pt 49.6138 30.0644 42.3629
Pt 69.6738 47.3737 49.1884
Pt 57.9141 31.2213 45.2619
Pt 41.1677 67.5441 51.5886
Pt 37.3419 64.2538 54.749
Pt 30.4452 54.7809 52.4462
Pt 29.4079 51.3917 47.6621
Pt 49.468 68.701 54.4875
Pt 30.4654 42.6003 48.1427
Pt 51.2152 66.1875 59.5943
Pt 32.2127 40.0868 53.2496
Pt 60.1259 58.9178 62.8125
Pt 64.6617 56.3054 59.9748
Pt 41.1234 32.8171 56.4677
Pt 45.6591 30.2047 53.63
Pt 65.7192 47.514 60.4554
Pt 61.8935 44.2238 63.6158
Pt 54.9967 34.7508 61.313
Pt 53.9594 31.3616 56.529
Pt 43.5985 57.931 31.0573
Pt 62.5413 60.5582 37.6734
Pt 46.0132 37.8562 32.1548
Pt 64.9667 40.498 38.7744
Pt 47.1261 69.4574 47.3277
Pt 30.5874 46.7409 41.8056
Pt 68.4943 52.0245 55.0449
Pt 51.9556 29.3079 49.5228
Pt 34.1151 58.2674 58.076
Pt 53.0685 60.9092 64.6957
Pt 36.5298 38.1927 59.1736
Pt 55.4832 40.8344 65.7932
Pt 41.1251 67.1044 43.1932
Pt 31.6666 54.1128 40.0351
Pt 54.7442 69.0036 47.9497
Pt 33.4009 39.6877 40.8234
Pt 66.9666 59.032 52.3639
Pt 45.6233 29.7162 45.2376
Pt 68.7009 44.607 53.1523
Pt 59.2424 31.6154 49.9941
Pt 39.8394 67.15 46.8564
Pt 30.3808 54.1584 43.6982
Pt 53.4594 69.0484 51.6133
Pt 32.1161 39.7326 44.4869
Pt 65.6799 59.0784 56.0267
Pt 44.3366 29.7626 48.9004
Pt 67.4152 44.6526 56.8154
Pt 57.9566 31.661 53.6573
Pt 50.671 55.6905 29.1589
Pt 48.4287 52.6107 28.4102
Pt 58.9408 56.8432 32.0472
Pt 49.4823 43.8516 28.8891
Pt 61.8379 54.4797 33.0935
Pt 52.3794 41.488 29.9354
Pt 62.8915 45.7206 33.5724
Pt 60.6492 42.6407 32.8237
Pt 39.5859 62.0751 36.094
Pt 37.3444 58.9963 35.3456
Pt 61.4758 65.1262 43.7392
Pt 40.1325 35.8103 36.6129
Pt 64.3729 62.7626 44.7855
Pt 43.0296 33.4468 37.6592
Pt 67.1617 39.5777 46.0531
Pt 64.9194 36.4978 45.3044
Pt 34.1623 62.2675 51.5461
Pt 31.92 59.1877 50.7974
Pt 56.0522 65.3186 59.1913
Pt 34.7089 36.0027 52.065
Pt 58.9493 62.955 60.2376
Pt 37.606 33.6392 53.1113
Pt 61.7381 39.7701 61.5052
Pt 59.4958 36.6903 60.7565
Pt 38.4326 56.1247 64.0268
Pt 36.1903 53.0448 63.2781
Pt 46.7024 57.2774 66.9151
Pt 37.2439 44.2857 63.757
Pt 49.5995 54.9138 67.9614
Pt 40.1409 41.9222 64.8033
Pt 50.6531 46.1547 68.4403
Pt 48.4117 43.0741 67.692
Pt 45.8515 56.6333 29.6478
Pt 62.0367 58.8892 35.3006
Pt 47.9136 39.4906 30.585
Pt 64.0987 41.7465 36.2378
Pt 41.3455 59.2286 32.4668
Pt 63.0671 62.2562 40.0533
Pt 44.1129 36.2219 33.7247
Pt 65.8345 39.2495 41.3111
Pt 44.3579 69.0716 46.3609
Pt 30.2348 49.6729 41.6453
Pt 49.8944 69.8432 48.2945
Pt 30.9402 43.8089 41.9659
Pt 68.1416 54.9564 54.8846
Pt 49.1874 28.9221 48.5559
Pt 68.847 49.0925 55.2052
Pt 54.7395 29.7153 50.4948
Pt 33.2472 59.5159 55.5394
Pt 54.9688 62.5435 63.1258
Pt 36.0146 36.5092 56.7972
Pt 57.7362 39.5368 64.3836
Pt 34.983 57.0189 60.6127
Pt 51.1682 59.2748 66.2655
Pt 37.0451 39.8762 61.5499
Pt 53.2302 42.1321 67.2027
C 124.939 7.73129 61.3329
C 124.223 6.18652 63.8129
C 123.197 7.06883 66.4741
C 120.798 8.22327 67.6433
C 117.913 9.04998 67.4014
C 116.258 11.0958 66.0345
C 115.99 14.0713 65.0866
C 117.048 16.6012 66.3235
C 118.992 17.9799 68.134
C 121.451 19.5597 67.6206
C 122.332 22.4973 67.0562
C 121.81 25.4066 65.9902
C 121.76 28.2596 66.9875
C 122.592 30.442 68.9215
C 124.621 32.6799 69.4275
C 127.038 33.7895 67.6987
C 128.456 34.3634 64.8205
C 128.545 35.353 61.9289
C 127.033 37.2957 59.9594
C 126.515 40.3079 59.5278
C 127.45 43.2711 59.8563
C 127.96 45.6309 61.7939
C 126.242 46.3351 64.1038
C 123.554 47.3896 64.8784
C 121.094 49.0926 63.8353
C 119.715 51.1172 62.0507
C 120.287 53.2538 60.1737
C 122.137 55.7529 59.1986
C 124.056 58.1735 59.939
C 123.986 60.1901 62.1761
C 122.606 62.8879 62.6349
C 120.43 63.5644 64.6885
C 118.851 63.1313 67.218
C 119.377 61.875 70.0271
C 120.29 63.4121 72.6201
C 121.868 65.7396 73.9276
C 121.688 68.5973 73.1009
C 121.672 70.899 70.8905
C 120.727 72.9736 69.0202
C 118.804 74.4584 67.1034
C 115.766 73.706 66.8434
C 112.982 73.4753 67.6539
C 111.259 73.2451 70.0158
C 111.312 75.2508 72.3861
C 109.787 77.8285 72.3359
C 107.919 80.2817 72.5571
C 106.642 82.3426 70.542
C 105.887 84.1153 68.0966
C 107.124 84.7668 65.4888
C 108.115 83.2987 63.001
C 108.189 80.8811 61.2358
C 105.941 79.4569 59.6779
C 103.054 79.3097 60.3195
C 100.304 80.3363 59.6083
C 98.5946 82.2199 58.0074
C 96.7566 83.2119 55.8882
C 96.3401 81.8254 53.2755
C 96.6969 80.7164 50.4298
C 98.1448 79.0187 48.2391
C 100.945 80.06 47.22
C 103.791 81.0758 47.2118
C 106.64 81.376 48.2557
C 109.197 80.2111 47.302
C 110.301 77.5752 48.232
C 110.682 74.4218 48.8637
C 108.673 71.993 48.6321
C 107.568 69.9052 46.7445
C 107.966 68.4336 44.0675
C 110.328 68.3189 42.0826
C 113.243 68.2448 43.0081
C 115.411 66.0125 43.746
C 117.196 63.3523 44.1787
C 117.294 60.997 42.3184
C 118.096 59.2834 39.8811
C 120.449 60.1064 38.1164
C 123.543 59.7382 38.3546
C 124.93 57.3347 39.4968
C 125.055 54.3248 40.3802
C 125.04 52.1686 38.388
C 124.619 50.9797 35.5715
C 124.14 51.9894 32.5639
C 125.789 53.0985 30.4167
C 128.486 53.599 29.1399
C 131.64 53.3427 28.8955
C 134.308 53.247 30.4047
C 135.728 55.7803 31.0633
C 136.805 58.6149 29.9719
C 138.711 60.6957 28.4306
C 140.085 60.1306 26.0741
C 142.384 58.7762 24.4499
C 145.259 57.8002 23.6331
C 147.476 57.231 25.7588
C 149.71 58.7797 27.4331
C 151.024 61.0848 29.0258
C 152.044 63.9133 28.8843
C 154.018 66.0262 27.8709
C 156.602 66.0427 26.2415
C 159.077 64.3314 26.323
C 160.447 61.6395 25.9317
C 162.592 59.947 27.6288
C 162.67 59.67 30.722
C 163.878 61.6505 33.0531
C 166.387 62.9606 34.2955
C 169.264 62.5365 34.7997
C 171.528 60.417 35.5039
C 172.523 57.6804 36.3367
C 172.969 55.0995 37.8384
C 171.335 54.429 40.3831
C 171.467 54.9357 43.3107
C 172.248 54.0833 46.2551
C 174.209 52.0164 47.2861
C 177.11 51.036 47.3204
C 180.2 51.1348 46.5625
C 182.274 53.2087 46.5882
C 184.31 53.9903 48.6013
C 185.742 54.6423 51.0128
C 185.67 55.3521 54.0223
C 184.828 57.1166 56.4598
C 182.287 58.9701 56.4404
C 181.836 61.6423 54.9931
C 182.748 64.5613 54.4202
C 184.462 67.1377 55.4175
C 186.251 68.3885 57.8009
C 185.713 68.7643 60.7878
C 184.217 69.9007 63.392
C 184.235 72.462 64.6945
C 185.926 74.272 66.4225
C 188.782 74.4228 67.4173
C 190.978 72.8243 68.9149
C 192.464 70.5963 70.2205
C 191.449 68.0656 71.5498
C 189.188 66.3468 72.7622
C 187.182 66.6695 75.193
C 186.461 67.3352 78.2315
C 186.697 69.7014 80.2175
C 188.446 70.9922 82.3811
C 190.71 69.9292 84.1998
C 191.529 67.2672 85.8983
C 190.605 64.3292 86.0795
C 190.358 61.6664 84.5116
C 191.641 60.105 82.2004
C 194.607 59.5972 81.3478
C 197.392 58.9919 82.2327
C 198.356 56.2744 83.3529
C 197.626 53.6205 84.372
C 196.741 50.703 84.0486
C 196.148 48.2291 82.4252
C 197.537 45.6008 82.0757
C 199.396 44.1981 83.9271
C 198.744 42.2062 86.3444
C 197.476 42.4334 89.1131
C 194.895 42.6916 91.0389
C 191.794 42.223 90.7891
C 189.141 41.3698 89.2831
C 186.827 41.4378 87.3012
C 186.342 40.6997 84.3697
C 186.958 41.5391 81.5856
C 185.442 43.3105 79.5796
C 182.543 44.5043 79.1952
C 179.564 43.9324 78.5093
C 177.04 42.281 77.4612
C 176.096 39.9909 75.6096
C 177.497 38.4382 73.4561
C 178.907 39.4341 71.063
C 178.26 41.1861 68.3226
C 175.887 41.9366 66.3488
C 173.682 40.5094 64.8912
C 172.031 37.9945 63.6005
C 172.649 35.3329 62.1268
C 173.691 34.1021 59.4726
C 173.702 32.2546 56.9435
C 172.571 29.5693 55.8244
C 173.363 26.8334 54.544
C 175.616 24.8175 53.8156
C 178.204 25.1165 52.0972
C 180.888 26.4205 51.5473
C 182.959 28.7603 52.1222
C 184.689 28.3933 54.6102
C 186.942 27.4857 56.5617
C 189.746 26.5264 56.8785
C 192.67 25.4651 56.8055
C 195.704 25.7995 57.3682
C 198.286 27.3014 58.0438
C 199.364 28.298 60.6431
C 200.355 27.666 63.3504
C 199.372 26.1618 65.9431
C 197.452 24.0353 67.1076
C 197.374 21.5631 68.7663
C 197.113 20.0649 71.518
C 197.555 19.536 74.5677
C 197.086 21.608 76.7641
C 195.719 24.1999 77.7682
C 193.269 25.4574 79.1573
C 190.149 24.8625 78.9531
C 187.639 23.3086 79.0771
C 187.25 20.3738 79.7767
C 187.817 17.734 81.027
C 188.454 16.0267 83.3583
C 187.86 15.1478 86.2953
C 186.18 13.627 88.2268
N 125.574 6.44952 58.9361
N 126.178 4.53661 63.1426
N 124.819 7.88273 68.4815
N 121.212 7.72924 70.1549
N 115.929 7.59505 68.2702
N 114.213 9.57867 65.5019
N 115.681 14.8765 62.7432
N 115.224 18.1256 67.5938
N 118.96 17.8859 70.7199
N 123.699 18.1858 68.1305
N 125.004 22.7942 67.5129
N 120.265 26.5402 64.235
N 120.667 29.4177 65.1278
N 121.071 30.7489 71.0288
N 124.545 34.4131 71.3091
N 128.091 35.4508 69.4697
N 130.771 33.882 65.7012
N 129.58 33.1722 61.012
N 127.569 35.4955 58.0666
N 127.343 39.5209 57.2103
N 127.776 44.0713 57.3706
N 130.313 46.0385 62.5442
N 128.542 46.1994 65.4748
N 122.494 46.3213 67.0502
N 120.689 48.3795 66.4016
N 117.302 51.4014 63.148
N 118.119 54.2806 59.1614
N 122.015 55.0967 56.6543
N 126.548 57.9424 60.6509
N 126.536 60.6249 61.7917
N 123.087 64.8881 60.9571
N 118.209 64.3278 63.8347
N 116.367 63.1775 67.9071
N 117.817 59.6707 70.0599
N 121.557 61.5113 74.1066
N 122.213 64.2867 76.1026
N 120.727 69.5135 75.5284
N 124.108 72.0822 70.858
N 123.263 73.425 68.8693
N 118.562 76.7331 65.6705
N 116.464 76.2078 65.7884
N 110.99 72.1931 66.6703
N 109.499 70.942 69.6097
N 111.682 74.6675 74.9451
N 110.727 78.7931 74.6209
N 105.666 80.9986 73.7976
N 104.165 82.9238 71.2411
N 104.589 86.3549 67.5043
N 107.961 87.2526 64.7294
N 110.613 84.4645 62.8313
N 110.176 79.6411 59.933
N 106.759 79.0878 57.3294
N 102.022 76.8674 60.6747
N 99.0712 78.7385 61.1757
N 97.3759 83.4217 60.0384
N 97.3423 85.5845 55.4111
N 95.1944 83.9826 52.349
N 94.0307 80.4826 50.0999
N 97.6652 77.3676 46.351
N 100.754 79.4601 44.6641
N 104.129 83.6938 47.0465
N 107.017 83.7817 47.992
N 111.127 80.095 45.4798
N 112.87 77.3222 47.4293
N 112.431 73.0694 50.3475
N 108.601 71.3791 51.1559
N 105.189 68.9899 46.7944
N 105.86 66.6396 44.2795
N 110.158 69.3006 39.6666
N 114.735 68.4024 40.6373
N 117.567 67.5089 44.6265
N 117.663 63.4381 46.8605
N 116.046 59.0591 43.6803
N 116.884 57.2206 40.5395
N 119.637 60.0514 35.5944
N 124.317 61.6632 36.8591
N 126.794 58.8926 40.6918
N 125.664 53.5974 42.9692
N 125.684 50.1001 39.7337
N 123.742 48.6631 34.8227
N 121.701 51.0167 32.5343
N 124.344 54.6424 28.8488
N 127.901 53.2121 26.5156
N 132.196 51.4641 27.0497
N 136.052 51.0549 30.713
N 135.269 56.1255 33.5784
N 137.326 58.1653 32.5203
N 139.877 62.9516 29.0241
N 138.632 62.1017 25.1751
N 141.799 58.1869 21.9427
N 144.971 57.0396 21.0395
N 149.01 55.5061 24.5774
N 151.687 57.1173 26.6021
N 149.255 61.2379 30.9106
N 150.028 65.1825 29.5906
N 152.702 68.3134 27.9107
N 157.189 68.5124 27.1508
N 160.86 65.55 24.7504
N 162.409 62.0926 23.9344
N 163.56 57.5235 27.7833
N 163.296 57.1217 31.1643
N 162.357 61.6742 35.3801
N 165.407 64.8914 35.8619
N 170.068 65.0004 33.9608
N 173.98 60.4277 34.0806
N 174.429 57.4398 34.2717