80000
Atoms. Timestep: 20000000
C 80.1192 76.5811 79.5052
C 78.9546 74.3521 77.8493
C 77.7065 71.6919 77.1635
C 75.1844 70.0414 77.6719
C 72.4177 69.9098 78.9697
C 69.6993 71.1246 78.2402
C 68.0969 72.2691 75.9317
C 67.2386 71.2594 73.1917
C 67.0096 68.8571 71.2985
C 66.2827 65.9407 71.6475
C 64.6761 64.0595 73.4612
C 62.0401 63.8731 74.9131
C 59.1261 64.7302 74.685
C 56.5671 65.0087 72.9969
C 54.8866 63.5535 70.9084
C 53.8119 60.8816 69.92
C 53.2754 58.0804 70.9143
C 51.4045 56.4768 72.6625
C 49.0271 56.2537 74.5456
C 46.0586 56.247 74.0217
C 43.9977 55.8731 71.8178
C 42.9203 56.852 69.0909
C 42.3448 59.544 67.834
C 40.2282 61.7884 67.6251
C 37.3095 62.4048 67.8665
C 34.6023 61.0445 67.798
C 32.7512 59.0334 66.4276
C 32.1507 57.8601 63.6273
C 31.4395 58.6621 60.7359
C 30.7695 60.9955 58.9984
C 30.4328 64.0416 59.1602
C 32.1382 66.5281 59.3553
C 34.5426 67.9679 58.205
C 36.5712 67.7798 55.9503
C 36.7994 68.3943 52.9945
C 36.5212 70.7595 51.0976
C 36.0708 73.7804 51.0521
C 36.9189 76.4692 52.1646
C 39.061 78.1071 53.6838
C 41.8714 79.0168 52.8688
C 44.3121 78.4412 51.1881
C 45.7599 76.3315 49.4754
C 47.3241 73.7473 49.9004
C 48.9832 71.8901 51.6563
C 51.434 72.1683 53.4405
C 54.4899 72.6365 53.4746
C 56.8742 72.167 51.6753
C 58.1507 69.7831 50.3166
C 58.792 66.7706 50.2553
C 59.0905 64.5173 52.2332
C 60.5104 63.716 54.798
C 62.9648 64.2605 56.4674
C 65.8282 65.0102 55.696
C 68.0936 64.2688 53.6922
C 69.956 62.1663 52.3886
C 71.2286 59.4503 52.6302
C 72.7208 57.9771 54.806
C 74.6435 58.112 57.1351
C 77.5247 58.9845 57.4293
C 80.3173 59.0356 56.3497
C 82.3151 57.5667 54.5817
C 83.6232 54.9492 53.8977
C 84.5491 52.4902 55.61
C 86.1487 51.4205 57.9951
C 88.5686 52.0677 59.7789
C 91.4504 52.8737 59.6513
C 94.0163 52.8979 57.8983
C 94.9187 53.6274 55.0658
C 95.0458 56.1125 53.3591
C 95.7823 59.0142 53.0054
C 98.032 60.8609 54.0946
C 101.022 61.1666 54.4675
C 103.703 60.3897 53.2193
C 105.31 59.7915 50.6674
C 105.142 60.5102 47.7636
C 104.132 62.7278 45.9566
C 104.843 65.5898 45.1661
C 107.186 67.5058 45.5053
C 110.215 67.8198 45.3517
C 112.676 66.7692 43.8548
C 113.863 65.5211 41.331
C 113.709 65.9362 38.3449
C 113.429 67.9904 36.1104
C 111.537 70.1098 35.1497
C 108.596 70.7672 34.5092
C 106.333 68.9811 33.4229
C 105.188 67.0343 31.3576
C 105.601 66.4022 28.4028
C 105.247 67.691 25.6975
C 103.09 69.015 24.005
C 100.375 68.531 22.6916
C 98.5454 66.3161 21.8047
C 98.2986 63.2928 21.6326
C 98.3232 60.5996 23.1048
C 97.7049 59.524 25.9035
C 95.4707 59.6226 27.9866
C 92.3897 59.5489 27.8449
C 89.9413 58.197 26.5956
C 89.2221 55.6449 25.1583
C 89.2812 52.5713 25.556
C 89.2742 50.5526 27.8184
C 87.8808 49.5178 30.3001
C 85.2518 48.8755 31.7117
C 82.353 48.2325 30.8506
C 79.8519 49.0552 29.3027
C 78.0756 51.5872 29.5063
C 76.6379 53.5766 31.4192
C 74.5409 54.0221 33.6134
C 71.9523 52.9087 34.7148
C 69.1577 51.6417 34.4216
C 67.6397 50.3201 32.1729
C 67.411 48.2126 29.9953
C 68.24 45.3083 29.3189
C 68.527 42.6786 30.7755
C 67.0067 40.5681 32.4471
C 64.2513 39.3872 32.7703
C 61.9444 38.7363 30.8797
C 61.5672 37.008 28.3807
C 62.6024 34.4559 27.0946
C 62.9022 31.6305 28.2128
C 61.4031 29.1933 29.378
C 58.9937 28.3294 31.0954
C 56.8249 29.3927 32.9435
C 56.3706 30.6266 35.5705
C 56.6137 30.8394 38.5957
C 58.1832 29.4821 40.8314
C 60.9662 28.4194 41.5767
C 63.9926 29.1949 41.7483
C 66.2369 31.008 42.5562
C 66.8108 33.126 44.7292
C 67.0735 33.265 47.7948
C 67.7541 31.6699 50.2961
C 70.1251 30.0667 51.3342
C 73.1607 30.3102 51.2955
C 75.3808 32.3737 51.4576
C 76.0663 35.304 52.097
C 75.698 37.1234 54.4956
C 74.9544 37.2423 57.4799
C 72.4546 37.0229 59.2208
C 69.4937 37.6734 59.8012
C 67.7366 40.0889 60.3253
C 67.8532 42.9383 61.3759
C 68.8738 44.1457 63.9862
C 69.4909 44.2247 66.9492
C 68.1563 43.5268 69.6126
C 65.8286 43.915 71.4824
C 62.8684 44.3617 71.6464
C 60.6071 43.8636 69.6388
C 58.9438 41.706 68.2695
C 57.9776 38.8779 68.872
C 56.3364 37.1936 70.8267
C 54.1538 37.0907 72.9204
C 51.174 37.8564 72.996
C 48.6933 37.84 71.2011
C 47.2964 36.5308 68.7672
C 46.7544 34.1697 66.9697
C 45.8757 31.2846 66.5254
C 43.456 29.5671 67.3602
C 40.375 29.7459 67.0641
C 38.0233 31.1935 65.8276
C 37.479 32.9441 63.3562
C 37.6745 32.5721 60.3415
C 37.4856 30.5938 58.0967
C 35.6044 28.5877 56.8522
C 32.9902 27.9761 55.279
C 31.5722 29.011 52.7302
C 31.9642 31.0637 50.5155
C 32.0013 34.0038 49.6119
C 30.8254 36.5796 50.8071
C 28.6162 38.682 50.9282
C 26.3151 39.729 49.2263
C 25.1699 40.3951 46.4942
C 25.9974 41.8923 44.09
C 27.2466 44.375 42.9107
C 27.4095 47.3006 43.7287
C 25.6563 49.774 43.8235
C 22.8265 50.6812 42.7802
C 21.0859 50.5368 40.2507
C 20.9569 51.0997 37.2324
C 21.7793 53.0729 35.0728
C 22.7191 55.9963 34.724
C 24.606 58.0414 36.0423
C 27.304 58.8061 37.1507
C 30.3122 58.2377 36.8645
C 32.1592 57.4707 34.5836
C 33.269 57.9597 31.7961
C 33.9692 60.2303 29.8563
C 35.5963 62.7753 29.8493
C 38.0643 64.3063 30.6596
C 40.9645 63.6671 31.771
C 43.4257 61.7476 31.5442
C 45.4906 60.9242 29.3705
C 45.7279 60.1728 26.3729
C 44.6736 58.6768 23.9822
C 43.8494 55.8679 23.416
C 43.6623 52.8947 24.0646
C 45.7143 50.6643 24.2384
C 48.2082 49.1846 23.3907
C 49.7223 48.4337 20.8747
C 49.7574 47.1682 18.0927
N 80.1514 78.5486 81.0876
N 79.5768 76.919 77.8016
N 79.3133 70.788 75.3069
N 76.3784 67.8637 76.7746
N 71.6748 67.8462 80.4301
N 68.364 71.853 80.3577
N 66.9641 74.6428 76.4093
N 66.9007 73.4323 71.7885
N 68.1625 69.1811 68.9585
N 67.1714 65.0313 69.3844
N 66.0686 62.0788 74.2732
N 62.6818 62.1686 76.8487
N 58.8192 65.9646 76.9755
N 55.5171 67.4286 73.5268
N 54.0147 65.3696 69.303
N 53.845 61.2783 67.3107
N 53.8866 56.4407 68.9681
N 53.4045 55.0391 73.6017
N 49.604 56.1646 77.0933
N 44.7827 56.3672 76.2494
N 42.2803 53.9392 72.1511
N 42.2687 54.6496 67.8471
N 43.8947 59.5109 65.6591
N 41.6253 63.7409 66.3738
N 36.8066 64.4642 69.5124
N 33.4139 61.624 70.1496
N 31.2031 57.6828 68.0754
N 33.1178 55.3694 63.831
N 31.563 56.7315 59.0249
N 30.2425 59.5883 56.8074
N 28.0692 65.2581 58.7452
N 30.5238 68.0934 60.6615
N 35.7482 69.2793 60.0991
N 38.9439 67.2456 56.9129
N 37.2725 66.5179 51.2675
N 36.0493 69.6953 48.8043
N 34.2459 74.6439 49.2795
N 34.6463 77.7374 51.9952
N 38.3929 78.7383 56.1576
N 42.4748 80.3309 55.0333
N 45.6286 80.6716 50.8123
N 46.2175 77.254 47.0535
N 47.4759 72.9041 47.3925
N 48.0336 69.4491 51.1792
N 50.6048 71.8782 55.8997
N 55.022 73.8516 55.7903
N 58.4961 74.1732 51.5468
N 59.3122 70.5684 48.1862
N 58.7472 65.9073 47.7573
N 57.7365 62.4163 51.654
N 59.1052 61.8011 55.9792
N 62.6631 65.0466 58.9096
N 66.7901 66.2508 57.811
N 69.5773 66.4623 53.2862
N 70.0761 62.9002 49.8712
N 70.8885 57.9687 50.5538
N 71.5246 55.5162 54.7747
N 74.333 56.6139 59.2887
N 77.743 60.4245 59.6443
N 81.4319 61.3347 56.7639
N 83.3414 59.0344 52.6457
N 84.4624 54.7642 51.4243
N 83.987 50.5356 53.9578
N 85.0479 49.3985 59.2003
N 87.894 51.8529 62.3394
N 91.9727 53.9175 61.9722
N 96.225 51.6662 58.7447
N 96.0371 51.5122 54.0345
N 94.3458 55.6649 50.8342
N 93.8521 60.6474 52.0249
N 96.9488 62.9525 55.2426
N 101.757 62.1405 56.7504
N 105.429 60.0762 55.1697
N 107.401 58.229 50.8569
N 105.336 58.19 46.5221
N 102.205 61.8341 44.3713
N 102.635 66.7674 44.3309
N 106.196 69.9654 46.1591
N 110.751 69.6888 47.1092
N 114.546 66.6429 45.7213
N 114.986 63.1823 41.8175
N 114.73 63.819 37.2124
N 115.724 68.5176 34.9148
N 112.92 71.987 33.9735
N 107.728 73.0378 35.5532
N 104.009 69.3319 34.6544
N 103.888 65.1454 32.6396
N 107.063 64.345 27.8328
N 107.458 67.0749 24.3581
N 104.015 71.1861 22.9149
N 98.8961 70.6548 23.3265
N 96.2169 67.2508 20.9315
N 98.1878 62.2852 19.2981
N 99.8071 58.9233 21.6693
N 99.5988 57.8798 26.9326
N 96.2997 59.3255 30.4719
N 91.2987 60.9281 29.7214
N 88.4018 60.2812 26.1384
N 88.218 55.9207 22.697
N 89.7902 51.2161 23.3595
N 91.2665 49.0291 27.1009
N 89.6424 49.4796 32.2114
N 85.747 48.8175 34.2934
N 81.7701 45.7591 31.3993
N 78.8397 47.2135 27.7575
N 77.6054 52.3315 26.9949
N 77.0172 55.7535 29.9997
N 74.7046 56.4972 34.3509
N 72.3102 53.3072 37.2136
N 68.5171 50.6728 36.7833
N 65.4049 51.5791 31.8769
N 65.6309 49.3921 28.3548
N 69.3143 45.0691 26.8909
N 70.9704 41.9306 30.3487
N 68.6797 39.608 34.2708
N 63.4515 39.0582 35.2464
N 59.6887 39.7008 31.7676
N 59.8464 38.0203 26.7156
N 62.0654 34.7065 24.546
N 65.3241 30.8447 27.7991
N 63.3061 27.4808 29.7982
N 58.1625 26.0928 30.0431
N 54.4616 28.9227 31.9881
N 54.2578 32.17 35.1256
N 55.6761 33.2386 39.1623
N 56.7827 28.5532 42.9023
N 60.5051 26.5477 43.3378
N 65.7625 27.5456 40.6375
N 68.4722 30.9401 41.1211
N 67.2079 35.55 43.9693
N 65.8366 35.483 48.4912
N 65.7057 31.4557 51.8819
N 69.0682 28.4814 53.1317
N 73.7678 27.8325 51.0013
N 77.3944 31.3583 50.0829
N 76.8797 36.3714 49.7932
N 76.0511 39.3826 53.185
N 76.9266 37.9202 59.1725
N 73.2037 35.361 61.0715
N 68.2174 35.5388 60.5471
N 65.6374 39.8785 58.6771
N 66.9091 44.769 59.6824
N 69.3674 46.6224 63.2741
N 71.8557 45.3386 67.2512
N 69.5014 41.9184 71.2075
N 66.3777 43.1401 73.9951
N 62.1452 46.1572 73.3817
N 59.4198 46.0984 69.0221
N 58.4522 42.2581 65.7785
N 58.8909 37.1031 67.1663
N 57.5595 34.8517 70.5376
N 54.839 35.7916 75.0919
N 51.0001 38.9412 75.3458
N 47.2609 39.9242 71.8678
N 45.9155 38.585 67.7777
N 48.0272 34.3024 64.7283
N 47.5749 29.7745 65.2642
N 44.1793 27.1714 68.1275
N 39.0975 28.5213 68.9637
N 35.9989 31.3604 67.519
N 36.6168 35.4299 63.7288
N 38.3167 34.954 59.3845
N 39.7479 30.3973 56.765
N 36.6552 26.2347 56.9969
N 31.6502 25.9653 56.4347
N 29.5422 27.4518 52.1805
N 32.1198 30.0555 48.0904
N 34.1679 34.2771 48.206
N 32.8005 37.8846 51.9572
N 29.1227 39.492 53.3927
N 24.0315 39.9147 50.5192
N 22.8337 39.1439 46.8159
N 25.27 40.6027 41.8446
N 28.2739 43.3822 40.7009
N 29.6396 48.281 44.7107
N 26.9386 51.6471 45.0567
N 20.9839 51.6905 44.3466
N 18.8237 50.1734 41.6027
N 20.052 49.0218 35.8346
N 21.9979 51.7919 32.7755
N 21.6265 57.3675 32.7803
N 23.2586 60.2682 36.5737
N 27.2062 60.5827 39.0981
N 31.6859 57.8885 39.028
N 33.6973 55.6235 35.7274
N 33.6829 55.6101 30.5621
N 32.453 60.0096 27.7386
N 35.125 63.4283 27.3285
N 37.5706 66.6142 31.7045
N 41.4497 64.9059 34.0225
N 44.2377 60.3068 33.6137
N 48.0359 60.6099 29.8088
N 47.8485 61.3703 25.2539
N 44.6569 60.05 21.7095
N 41.5446 56.0772 22.2003
N 41.2241 51.9773 24.399
N 45.0075 49.4265 26.3982
N 49.8494 48.3599 25.1291
N 51.0109 48.6088 18.6108
N 50.3654 47.4932 15.5532
Au 47.6094 48.7462 67.3264
Au 47.2696 51.5721 67.1719
Au 45.2712 45.5345 66.5456
Au 42.6032 45.1626 65.6138
Au 49.1213 63.1506 35.0797
Au 39.7586 50.2905 31.9535
Au 54.6612 63.9227 37.0145
Au 40.4644 44.4229 32.2743
Au 66.7579 54.0537 41.3833
Au 52.5611 34.5539 36.6431
Au 67.4637 48.1861 41.7041
Au 58.101 35.326 38.5779
Au 50.1524 66.5196 39.8353
Au 35.9556 47.0198 35.0951
Au 68.4948 51.5552 46.4597
Au 54.298 32.0553 41.7196
Au 44.7837 66.7101 55.1309
Au 30.5869 47.2102 50.3907
Au 63.1262 51.7456 61.7553
Au 48.9294 32.2458 57.0151
Au 40.9807 63.4393 58.2726
Au 31.618 50.5793 55.1464
Au 46.5206 64.2115 60.2074
Au 32.3207 44.7142 55.4661
Au 58.6174 54.3425 64.5762
Au 44.4205 34.8427 59.836
Au 59.3232 48.4749 64.897
Au 49.9605 35.6148 61.7708
Au 46.8838 64.4369 36.4913
Au 51.3658 61.8554 33.6872
Au 37.5207 51.5763 33.365
Au 42.0026 48.9948 30.561
Au 55.1662 65.5913 39.384
Au 54.1413 62.2423 34.6566
Au 42.3562 46.0551 30.7217
Au 38.5759 42.8038 33.8446
Au 67.2635 55.7219 43.753
Au 66.2386 52.3728 39.0256
Au 66.5922 49.4331 39.1863
Au 57.2291 36.5725 36.06
Au 54.4535 36.1856 35.0907
Au 50.6732 32.9344 38.2136
Au 68.3187 46.9494 44.2326
Au 58.9534 34.0857 41.1056
Au 52.9073 66.8924 40.7973
Au 47.3987 66.1225 38.8734
Au 35.6153 49.9376 34.939
Au 36.3169 44.1049 35.2579
Au 68.1337 54.4701 46.2963
Au 51.5433 31.6826 40.7569
Au 68.8353 48.6373 46.6152
Au 57.0503 32.4501 42.6803
Au 47.5384 67.0828 56.0935
Au 42.0315 66.3153 54.1702
Au 40.1284 64.6797 55.7449
Au 30.763 51.816 52.6179
Au 30.2464 50.1281 50.2353
Au 30.948 44.2953 50.5542
Au 48.4086 65.831 58.6369
Au 31.8182 43.0435 53.0975
Au 60.5059 55.9616 63.0059
Au 62.7648 54.6605 61.5926
Au 43.9155 33.1741 57.4665
Au 46.1745 31.873 56.0532
Au 63.4664 48.8278 61.9115
Au 61.5611 47.1891 63.4855
Au 52.198 34.3285 60.3592
Au 51.6814 32.6406 57.9766
Au 41.8527 62.1929 60.7905
Au 32.4896 49.3323 57.6642
Au 44.6282 62.5798 61.7598
Au 32.8432 46.3925 57.8249
Au 56.7284 52.708 66.1298
Au 57.0791 49.7706 66.2895
Au 47.716 36.91 63.1632
Au 44.9434 36.5208 62.1949
Au 48.5654 57.0634 30.6269
Au 46.1374 53.7403 29.816
Au 59.2952 58.5641 34.3743
Au 47.5051 42.37 30.4377
Au 62.4252 56.0106 35.5047
Au 50.6351 39.8164 31.5681
Au 63.7929 44.6402 36.1264
Au 61.3703 41.3127 35.3175
Au 41.9104 60.8978 34.7851
Au 39.4878 57.5702 33.9762
Au 60.8158 63.5329 41.388
Au 41.8964 37.5463 35.0709
Au 63.9459 60.9793 42.5184
Au 45.0265 34.9927 36.2014
Au 66.3545 40.9553 43.6131
Au 63.9319 37.6278 42.8042
Au 43.9085 67.4264 44.0007
Au 32.1183 51.2322 40.0641
Au 52.0787 68.5651 46.8542
Au 33.1593 42.5786 40.5371
Au 67.3116 56.1375 52.3556
Au 48.3922 30.151 46.0386
Au 68.3483 47.4781 52.8273
Au 56.5624 31.2898 48.8921
Au 42.5193 67.4757 47.9584
Au 30.7292 51.2815 44.0218
Au 50.6895 68.6144 50.8119
Au 31.7701 42.6279 44.4949
Au 65.9343 56.2031 56.3173
Au 47.0031 30.2003 49.9963
Au 66.9634 47.5332 56.7864
Au 55.1733 31.339 52.8498
Au 35.1499 61.1376 54.0463
Au 32.7272 57.8101 53.2374
Au 54.0553 63.7727 60.6491
Au 35.1359 37.7861 54.3321
Au 57.1853 61.2191 61.7796
Au 38.2659 35.2325 55.4625
Au 59.5939 41.1952 62.8743
Au 57.1713 37.8676 62.0654
Au 37.7114 57.4527 61.533
Au 35.2888 54.1252 60.7241
Au 48.4466 58.949 65.2824
Au 36.6565 42.7548 61.3458
Au 51.5767 56.3954 66.4128
Au 39.7865 40.2012 62.4762
Au 52.9444 45.0251 67.0344
Au 50.5218 41.6975 66.2256
Au 51.1362 52.8511 29.3793
Au 59.1495 53.968 32.1779
Au 52.1572 44.3638 29.8433
Au 60.1704 45.4807 32.642
Au 37.773 60.5478 37.7397
Au 62.2054 63.9532 46.2729
Au 40.8858 34.6699 39.1545
Au 65.3182 38.0754 47.6877
Au 39.2644 65.421 44.6186
Au 32.2721 55.8168 42.2839
Au 55.6836 67.7096 50.3531
Au 34.364 38.4262 43.2347
Au 64.7178 60.3392 53.6158
Au 43.3981 31.0558 46.4974
Au 66.8096 42.9486 54.5666
Au 59.8173 33.3444 52.2319
Au 33.7635 60.69 49.1628
Au 58.196 64.0955 57.696
Au 36.8763 34.8121 50.5776
Au 61.3088 38.2176 59.1108
Au 38.9114 53.2847 64.2085
Au 46.9246 54.4016 67.0072
Au 39.9323 44.7974 64.6725
Au 47.9455 45.9143 67.4712
Au 46.3308 62.7105 34.1179
Au 48.5771 61.4166 32.7126
Au 39.4471 53.2554 31.8195
Au 41.6934 51.9616 30.4141
Au 57.4564 64.2612 38.0036
Au 56.9427 62.5827 35.6343
Au 40.8645 41.4716 32.4637
Au 42.7592 43.1011 30.8986
Au 66.3502 57.0052 41.2156
Au 65.8365 55.3267 38.8463
Au 49.7583 34.2157 35.6758
Au 51.653 35.8452 34.1106
Au 67.7676 45.2214 41.8599
Au 66.9023 46.4663 39.3307
Au 60.8839 35.7664 39.5615
Au 60.0186 37.0112 37.0323
Au 50.6478 68.1826 42.2632
Au 47.8878 67.7979 41.2993
Au 34.056 45.3931 36.7234
Au 33.7043 48.3164 36.5635
Au 69.3246 50.3089 49.0412
Au 68.973 53.2322 48.8814
Au 55.1412 30.8274 44.3055
Au 52.3811 30.4427 43.3415
Au 46.7006 68.3227 53.5089
Au 43.9406 67.938 52.545
Au 30.1088 45.5331 47.9691
Au 29.7571 48.4565 47.8092
Au 65.3774 50.449 60.2869
Au 65.0258 53.3723 60.1271
Au 51.1938 30.9675 55.5516
Au 48.434 30.5828 54.5872
Au 39.0632 61.7542 59.8182
Au 38.1979 62.999 57.289
Au 32.1795 52.2991 57.5198
Au 31.3142 53.544 54.9906
Au 47.4287 62.9202 62.7399
Au 49.3234 64.5497 61.1747
Au 33.2453 43.4387 58.0042
Au 32.7316 41.7602 55.6348
Au 56.3226 55.6642 65.9519
Au 58.2172 57.2938 64.3867
Au 42.1391 36.1827 61.2162
Au 41.6254 34.5042 58.8469
Au 57.3884 46.8038 66.4363
Au 59.6347 45.51 65.031
Au 50.4929 37.3492 64.1715
Au 52.751 36.0549 62.7326
Au 53.4404 56.0784 30.1098
Au 48.7835 49.6819 28.5549
Au 56.1809 56.4604 31.0669
Au 49.1326 46.7793 28.7136
Pt 62.1978 51.5516 33.2399
Pt 55.1495 41.8705 30.8866
Pt 62.5469 48.649 33.3986
Pt 57.8899 42.2524 31.8437
Pt 40.0908 63.7674 38.4617
Pt 35.4338 57.3708 36.9068
Pt 59.2338 66.4356 45.1476
Pt 37.8727 37.0953 38.0153
Pt 65.2506 61.5267 47.3206
Pt 43.8895 32.1865 40.1883
Pt 67.6895 41.2512 48.4291
Pt 63.0326 34.8546 46.8742
Pt 40.6008 65.434 40.8142
Pt 33.5525 55.7529 38.4609
Pt 57.0034 67.7202 46.543
Pt 35.6423 38.3799 39.4107
Pt 66.1098 60.2908 49.8318
Pt 44.7487 30.9505 42.6995
Pt 68.1996 42.9178 50.7816
Pt 61.1513 33.2367 48.4282
Pt 37.9305 65.5287 48.4222
Pt 30.8822 55.8476 46.0689
Pt 54.333 67.8149 54.151
Pt 32.9719 38.4746 47.0187
Pt 63.4395 60.3855 57.4398
Pt 42.0784 31.0452 50.3075
Pt 65.5292 43.0125 58.3896
Pt 58.4809 33.3314 56.0362
Pt 36.0492 63.9108 49.9763
Pt 31.3922 57.5142 48.4214
Pt 55.1922 66.5789 56.6622
Pt 33.8311 37.2386 49.5299
Pt 61.2091 61.6701 58.8352
Pt 39.848 32.3298 51.7029
Pt 63.648 41.3946 59.9437
Pt 58.991 34.998 58.3888
Pt 41.1918 56.5129 65.0068
Pt 36.5348 50.1164 63.4519
Pt 43.9323 56.8949 65.9639
Pt 36.884 47.2138 63.6106
Pt 49.9492 51.9861 68.1369
Pt 42.9009 42.305 65.7836
Pt 50.2983 49.0835 68.2956
Pt 45.6413 42.687 66.7407
Pt 44.6268 65.7284 37.9109
Pt 35.2697 52.8761 34.7867
Pt 55.6798 67.269 41.7713
Pt 36.6779 41.1691 35.4267
Pt 67.7693 57.4059 46.1374
Pt 48.7673 31.3061 39.7928
Pt 69.1775 45.699 46.7775
Pt 59.8204 32.8467 43.6532
Pt 39.2614 65.9187 53.1973
Pt 29.9043 53.0664 50.073
Pt 50.3144 67.4593 57.0577
Pt 31.3125 41.3594 50.7131
Pt 62.4038 57.5963 61.4238
Pt 43.4019 31.4964 55.0792
Pt 63.8121 45.8893 62.0638
Pt 54.455 33.037 58.9396
Pt 53.6226 60.5471 32.2828
Pt 44.2655 47.6948 29.1586
Pt 65.7121 50.6841 36.649
Pt 56.355 37.8318 33.5247
Pt 42.7268 60.9336 63.3257
Pt 33.3697 48.0813 60.2015
Pt 54.8162 51.0706 67.6919
Pt 45.4591 38.2183 64.5676
Pt 50.8405 60.1237 31.3111
Pt 43.9438 50.6508 29.0083
Pt 56.4135 60.9005 33.2575
Pt 44.6538 44.748 29.331
Pt 65.3242 53.6308 36.4756
Pt 66.0342 47.7281 36.7983
Pt 59.1375 38.2551 34.4955
Pt 53.5645 37.4783 32.5491
Pt 39.9443 60.5103 62.355
Pt 33.0475 51.0373 60.0522
Pt 45.5173 61.287 64.3014
Pt 33.7576 45.1346 60.3749
Pt 54.428 54.0174 67.5195
Pt 55.138 48.1146 67.8422
Pt 48.2413 38.6417 65.5394
Pt 42.6683 37.8649 63.593
Pt 44.0851 64.0146 35.5374
Pt 37.1883 54.5416 33.2347
Pt 57.9584 65.9483 40.3828
Pt 38.9558 39.8476 34.038
Pt 66.8691 58.6786 43.6009
Pt 47.8665 32.5779 37.2561
Pt 68.6366 43.9845 44.4043
Pt 61.7398 34.5116 42.1015
Pt 45.1223 67.4038 40.3215
Pt 33.3626 51.2514 36.3951
Pt 53.4226 68.5607 43.2205
Pt 34.4201 42.46 36.8757
Pt 68.6163 56.1651 48.7077
Pt 49.6138 30.0644 42.3629
Pt 69.6738 47.3737 49.1884
Pt 57.9141 31.2213 45.2619
Pt 41.1677 67.5441 51.5886
Pt 37.3419 64.2538 54.749
Pt 30.4452 54.7809 52.4462
Pt 29.4079 51.3917 47.6621
Pt 49.468 68.701 54.4875
Pt 30.4654 42.6003 48.1427
Pt 51.2152 66.1875 59.5943
Pt 32.2127 40.0868 53.2496
Pt 60.1259 58.9178 62.8125
Pt 64.6617 56.3054 59.9748
Pt 41.1234 32.8171 56.4677
Pt 45.6591 30.2047 53.63
Pt 65.7192 47.514 60.4554
Pt 61.8935 44.2238 63.6158
Pt 54.9967 34.7508 61.313
Pt 53.9594 31.3616 56.529
Pt 43.5985 57.931 31.0573
Pt 62.5413 60.5582 37.6734
Pt 46.0132 37.8562 32.1548
Pt 64.9667 40.498 38.7744
Pt 47.1261 69.4574 47.3277
Pt 30.5874 46.7409 41.8056
Pt 68.4943 52.0245 55.0449
Pt 51.9556 29.3079 49.5228
Pt 34.1151 58.2674 58.076
Pt 53.0685 60.9092 64.6957
Pt 36.5298 38.1927 59.1736
Pt 55.4832 40.8344 65.7932
Pt 41.1251 67.1044 43.1932
Pt 31.6666 54.1128 40.0351
Pt 54.7442 69.0036 47.9497
Pt 33.4009 39.6877 40.8234
Pt 66.9666 59.032 52.3639
Pt 45.6233 29.7162 45.2376
Pt 68.7009 44.607 53.1523
Pt 59.2424 31.6154 49.9941
Pt 39.8394 67.15 46.8564
Pt 30.3808 54.1584 43.6982
Pt 53.4594 69.0484 51.6133
Pt 32.1161 39.7326 44.4869
Pt 65.6799 59.0784 56.0267
Pt 44.3366 29.7626 48.9004
Pt 67.4152 44.6526 56.8154
Pt 57.9566 31.661 53.6573
Pt 50.671 55.6905 29.1589
Pt 48.4287 52.6107 28.4102
Pt 58.9408 56.8432 32.0472
Pt 49.4823 43.8516 28.8891
Pt 61.8379 54.4797 33.0935
Pt 52.3794 41.488 29.9354
Pt 62.8915 45.7206 33.5724
Pt 60.6492 42.6407 32.8237
Pt 39.5859 62.0751 36.094
Pt 37.3444 58.9963 35.3456
Pt 61.4758 65.1262 43.7392
Pt 40.1325 35.8103 36.6129
Pt 64.3729 62.7626 44.7855
Pt 43.0296 33.4468 37.6592
Pt 67.1617 39.5777 46.0531
Pt 64.9194 36.4978 45.3044
Pt 34.1623 62.2675 51.5461
Pt 31.92 59.1877 50.7974
Pt 56.0522 65.3186 59.1913
Pt 34.7089 36.0027 52.065
Pt 58.9493 62.955 60.2376
Pt 37.606 33.6392 53.1113
Pt 61.7381 39.7701 61.5052
Pt 59.4958 36.6903 60.7565
Pt 38.4326 56.1247 64.0268
Pt 36.1903 53.0448 63.2781
Pt 46.7024 57.2774 66.9151
Pt 37.2439 44.2857 63.757
Pt 49.5995 54.9138 67.9614
Pt 40.1409 41.9222 64.8033
Pt 50.6531 46.1547 68.4403
Pt 48.4117 43.0741 67.692
Pt 45.8515 56.6333 29.6478
Pt 62.0367 58.8892 35.3006
Pt 47.9136 39.4906 30.585
Pt 64.0987 41.7465 36.2378
Pt 41.3455 59.2286 32.4668
Pt 63.0671 62.2562 40.0533
Pt 44.1129 36.2219 33.7247
Pt 65.8345 39.2495 41.3111
Pt 44.3579 69.0716 46.3609
Pt 30.2348 49.6729 41.6453
Pt 49.8944 69.8432 48.2945
Pt 30.9402 43.8089 41.9659
Pt 68.1416 54.9564 54.8846
Pt 49.1874 28.9221 48.5559
Pt 68.847 49.0925 55.2052
Pt 54.7395 29.7153 50.4948
Pt 33.2472 59.5159 55.5394
Pt 54.9688 62.5435 63.1258
Pt 36.0146 36.5092 56.7972
Pt 57.7362 39.5368 64.3836
Pt 34.983 57.0189 60.6127
Pt 51.1682 59.2748 66.2655
Pt 37.0451 39.8762 61.5499
Pt 53.2302 42.1321 67.2027
C 200.859 90.6227 56.6842
C 200.727 88.4005 54.6901
C 200.003 85.5837 54.153
C 199.031 83.1861 55.7272
C 197.153 81.9099 57.8055
C 194.41 82.723 58.8856
C 191.524 83.541 58.8017
C 189.273 82.355 57.0621
C 188.246 80.0564 55.3115
C 188.219 77.0759 55.4829
C 187.077 74.6586 56.8756
C 184.506 73.8323 58.4585
C 181.444 73.3162 58.2908
C 179.088 73.0204 56.3126
C 178.334 71.4802 53.6848
C 178.597 68.6252 52.6832
C 177.745 65.7361 53.1496
C 176.382 63.6248 54.9402
C 173.944 63.5223 56.8764
C 170.99 62.9078 56.7667
C 168.725 62.822 54.7759
C 167.223 64.4706 52.7018
C 166.339 67.2315 51.812
C 164.557 69.5522 52.5853
C 162.031 70.8279 53.8227
C 159.095 70.3537 53.2501
C 156.691 70.5206 51.3986
C 156.031 71.1033 48.5251
C 157.157 71.0445 45.7496
C 158.519 69.4863 43.583
C 158.714 66.734 42.1751
C 157.334 64.3124 41.0284
C 155.038 63.921 38.9952
C 154.57 64.0951 35.967
C 155.851 64.2836 33.1629
C 157.585 62.5314 31.3838
C 159.577 60.1772 31.2614
C 161.815 58.4652 32.5319
C 164.007 59.0876 34.4744
C 166.455 60.5437 35.4037
C 168.464 62.7128 34.7359
C 170.804 63.408 32.9004
C 173.241 62.3275 31.5645
C 175.317 60.1386 31.443
C 177.447 58.8951 33.2395
C 179.652 59.5387 35.2474
C 182.184 61.2228 35.4865
C 184.892 61.7385 34.0393
C 186.756 61.0082 31.7678
C 186.637 60.4283 28.8289
C 185.751 61.3889 26.0272
C 185.812 64.0459 24.5693
C 187.554 66.2712 23.4941
C 190.268 67.2126 22.4074
C 192.988 65.8399 22.1262
C 195.208 64.5392 23.687
C 197.276 64.8871 25.9141
C 198.05 67.0346 27.9011
C 199.759 69.672 28.048
C 201.926 71.2896 26.7302
C 204.465 70.539 25.1413
C 207.197 69.0847 25.2511
C 209.679 69.1085 27.0056
C 210.948 70.0757 29.6604
C 210.063 70.8002 32.4977
C 208.586 69.626 34.9341
C 207.69 67.1162 36.4551
C 208.145 64.1419 36.7131
C 210.053 62.172 38.0363
C 211.651 61.7621 40.5804
C 211.737 62.3389 43.5669
C 209.775 62.481 45.8384
C 206.863 61.6859 46.4076
C 205.01 59.3118 46.1073
C 204.487 56.249 46.0818
C 205.481 53.6239 47.2724
C 204.893 52.2383 49.9395
C 203.405 52.0891 52.5569
C 200.551 51.3832 53.2648
C 198.075 49.9029 52.2967
C 196.748 48.1615 50.1867
C 196.499 47.671 47.1514
C 195.344 48.8321 44.5772
C 192.923 50.4141 43.6311
C 189.889 50.4502 43.5117
C 187.514 48.5597 43.597
C 185.883 46.4497 45.0897
C 184.854 46.2638 47.9263
C 183.541 47.6862 50.3181
C 181.68 50.1238 50.5193
C 179.187 51.4725 49.5134
C 176.322 51.085 48.4825
C 173.98 49.2056 48.5381
C 172.89 46.4797 49.326
C 173.091 43.5846 48.487
C 172.721 41.4801 46.3791
C 171.458 41.3675 43.6885
C 168.608 41.2919 42.5106
C 165.87 40.0812 43.0278
C 164.684 37.4887 44.1086
C 165.058 34.5054 44.091
C 166.592 32.3183 42.6622
C 166.205 30.8591 40.052
C 164.166 29.6367 38.1194
C 161.207 29.4876 37.6642
C 158.466 30.8315 37.4813
C 157.088 33.0962 36.0409
C 156.046 33.3263 33.1761
C 154.038 32.0811 31.2314
C 151.819 30.0164 31.1276
C 149.604 28.4166 32.4628
C 147.296 29.108 34.4131
C 144.727 30.6684 34.716
C 141.944 31.2228 33.5611
C 139.504 29.7074 32.5745
C 137.588 27.4448 33.2647
C 135.759 26.5193 35.5853
C 134.062 27.7086 37.8438
C 133.873 30.0572 39.7668
C 134.84 31.6687 42.1147
C 135.717 31.5653 45.0907
C 136.271 29.6359 47.4087
C 137.204 26.725 47.7525
C 139.449 24.6044 47.1985
C 142.459 24.3149 47.0573
C 145.042 25.384 48.3416
C 145.983 25.8207 51.2479
C 146.805 24.6753 53.9471
C 148.606 22.423 55.053
C 151.479 21.236 54.8413
C 154.337 21.9361 55.3994
C 156.008 24.4534 56.0791
C 156.304 27.0322 57.6857
C 155.82 28.0399 60.5598
C 156.249 27.0865 63.4474
C 158.363 26.4032 65.5569
C 160.75 27.3492 67.0282
C 162.064 29.8776 68.3031
C 161.958 32.9384 68.1413
C 161.781 35.3096 66.3249
C 162.442 36.4895 63.5967
C 165.036 36.7032 62.008
C 168.025 36.83 61.8407
C 170.476 38.2405 62.9578
C 171.326 40.8858 64.1664
C 171.282 43.9045 63.6474
C 169.113 46.0974 63.4177
C 166.361 47.0319 64.3801
C 164.612 48.0413 66.693
C 164.473 50.3213 68.826
C 164.63 53.3111 68.7301
C 163.328 55.6682 67.3035
C 160.557 56.8322 66.5469
C 157.557 56.5857 66.6098
C 155.727 56.3672 69.0576
C 154.93 57.9272 71.5491
C 154.441 60.7578 72.5596
C 153.593 63.4589 71.5076
C 151.156 64.8152 70.1548
C 148.475 63.9732 69.1117
C 145.87 62.6176 69.9119
C 143.513 63.5459 71.6826
C 141.863 65.6349 73.145
C 140.739 68.4024 72.5855
C 138.677 69.6852 70.8018
C 136.138 69.4097 69.0658
C 135.189 67.6592 66.8008
C 135.983 65.8326 64.4049
C 137.025 65.9978 61.581
C 136.492 67.3739 58.8691
C 134.24 67.5753 56.8802
C 131.667 66.4612 55.8786
C 130.133 63.8031 56.0241
C 130.437 60.8088 56.5932
C 131.826 58.3688 55.3867
C 132.13 57.1364 52.5468
C 131.079 57.141 49.7216
C 128.511 57.1883 47.9862
C 125.76 55.8782 47.446
C 124.544 53.1601 46.9547
C 124.888 50.4652 48.2515
C 125.008 48.5579 50.6585
C 125.036 48.5269 53.7123
C 123.096 49.0988 56.077
C 120.661 48.0757 57.4989
C 119.313 45.4895 58.2864
C 119.569 42.8197 59.8545
C 120.765 41.5755 62.3881
C 122.775 42.0214 64.6694
C 125.504 43.0526 65.6565
C 128.459 43.3551 64.9587
C 130.7 41.7922 63.6943
C 132.008 39.1283 63.7508
C 132.869 36.8347 65.5363
C 134.335 36.4721 68.1834
C 136.347 37.5929 70.1848
C 138.949 39.15 70.3184
C 141.764 39.5269 69.3555
C 144.232 37.7649 69.3866
C 146.077 35.5562 68.6008
N 200.805 92.5247 58.3683
N 201.622 90.8125 55.2529
N 201.176 85.7067 51.8553
N 199.5 81.8347 53.509
N 197.89 79.4334 58.2892
N 194.89 82.5329 61.5167
N 190.844 84.5434 61.1384
N 187.541 84.3181 56.7833
N 187.664 81.1829 52.9917
N 189.177 76.4247 53.0948
N 189.004 72.9074 57.1423
N 185.327 72.1596 60.3538
N 180.237 73.3931 60.7028
N 177.321 74.822 57.0906
N 176.919 72.995 52.1844
N 178.676 69.3052 50.1265
N 179.48 64.315 51.8135
N 178.468 62.3895 55.7965
N 174.224 63.6111 59.5129
N 170.15 62.5446 59.1735
N 167.125 60.6359 54.9633
N 166.874 62.7044 50.758
N 167.364 67.8336 49.4384
N 166.217 71.6451 52.2349
N 162.631 73.0025 55.2343
N 158.031 69.3396 55.4265
N 154.94 68.9065 52.6648
N 153.624 72.1937 48.1377
N 155.987 72.8743 44.3027
N 160.389 70.8715 42.354
N 160.922 65.4492 42.8047
N 157.923 62.1163 42.2838
N 153.305 62.3205 40.1586
N 152.105 64.8354 35.9905
N 154.29 66.0512 31.904
N 157.534 63.9207 29.1642
N 158.905 59.4243 28.8032
N 161.158 56.0177 31.991
N 163.91 56.8164 35.7347
N 166.994 59.7121 37.8455
N 168.641 64.6233 36.479
N 169.962 65.8781 32.582
N 173.223 63.2094 29.0507
N 175.239 59.3279 28.9766
N 177.378 56.2974 33.3969
N 178.64 58.2569 37.3432
N 181.714 63.3027 37.0586
N 186.373 63.3336 35.5234
N 188.973 60.2411 32.9913
N 187.287 58.0725 27.8623
N 185.09 59.26 24.6751
N 183.651 64.9562 23.3656
N 186.243 68.4206 24.1764
N 190.786 69.7629 21.7562
N 193.528 65.3128 19.704
N 196.048 62.473 22.3818
N 198.218 62.5785 26.8518
N 197.394 66.3554 30.3374
N 198.737 71.4046 29.7347
N 201.411 73.8293 26.5371
N 204.681 71.753 22.7799
N 207.857 67.6845 23.1275
N 211.158 67.1381 26.0381
N 213.497 70.6441 29.842
N 211.435 72.9906 33.1234
N 207.488 71.5315 36.4691
N 205.205 67.4484 37.3171
N 206.262 62.7566 35.4836
N 210.52 60.3752 36.1945
N 214.131 61.1343 40.3073
N 214.146 62.1263 44.6762
N 210.325 63.9573 47.9211
N 205.953 63.3074 48.2262
N 202.668 60.2299 45.2391
N 202.793 56.0806 44.1329
N 206.778 51.9962 45.6366
N 207.28 51.1847 50.1894
N 204.885 52.8632 54.5677
N 199.963 53.1653 55.1823
N 196.239 50.5441 54.0136
N 195.489 46.2229 51.5066
N 197.295 45.2009 46.9923
N 196.895 48.0107 42.6473
N 193.848 52.5126 42.3674
N 189.344 52.943 43.3591
N 186.104 48.6315 41.3978
N 185.615 44.326 43.5367
N 184.897 43.7089 48.7003
N 184.324 46.1208 52.333
N 181.802 50.9298 53.0002
N 180.139 53.9089 49.5164
N 175.943 52.5406 46.2717
N 171.983 50.7987 47.9783
N 171.166 47.1594 51.2429
N 173.123 42.2106 50.7058
N 174.512 39.606 46.9117
N 173.242 40.8249 41.7623
N 168.644 42.447 40.1641
N 164.152 42.0404 42.7081
N 162.557 38.0708 45.5626
N 164.507 33.9023 46.5771
N 168.558 31.0922 43.911
N 168.677 30.8578 38.9101
N 165.141 29.0819 35.6625
N 160.459 26.9195 37.4959
N 156.971 30.1994 39.6567
N 156.928 35.2597 37.512
N 156.158 35.7137 32.2045
N 154.206 33.5123 29.0745
N 152.744 28.1927 29.4425
N 150.124 25.7999 32.7577
N 147.426 28.4149 36.9715
N 144.563 32.3793 36.6419
N 140.925 33.5855 33.2848
N 139.076 30.7688 30.1863
N 137.257 26.1878 31.0188
N 136.071 23.9251 35.1187
N 131.786 26.381 37.9068
N 131.405 30.8339 39.2487
N 134.832 34.1512 41.3233
N 137.042 33.8182 45.1983
N 136.207 30.6157 49.8171
N 135.625 25.7969 49.6937
N 138.519 22.2536 46.4898
N 143.595 22.6818 45.2763
N 146.782 26.5608 46.8345
N 147.031 28.2128 51.6363
N 145.612 26.0654 55.8282
N 147.074 21.0685 56.6538
N 151.359 18.6049 54.5423
N 155.813 20.204 54.1458
N 157.796 24.9359 54.1664
N 157.505 28.8981 56.354
N 154.049 29.9954 60.439
N 153.867 27.0238 64.5269
N 157.077 24.1657 66.1748
N 162.283 25.1883 67.4367
N 164.145 28.6945 69.417
N 162.622 33.5476 70.6706
N 160.338 36.9072 67.8242
N 160.528 38.0182 62.5667
N 164.092 35.9408 59.709
N 168.77 35.5363 59.7466
N 172.401 36.6454 63.4156
N 173.19 40.7033 65.9995
N 173.245 45.5429 64.2741
N 169.629 47.7026 61.4079
N 164.777 46.653 62.313
N 162.445 46.4749 67.2393
N 164.108 48.6958 70.8724