80000
Atoms. Timestep: 0
C 63.9964 89.4502 69.9081
C 64.6915 86.9032 68.4255
C 65.6385 85.2489 66.0901
C 67.325 85.5995 63.5214
C 67.8838 88.0531 61.8356
C 66.681 90.6 60.6165
C 63.9069 91.7275 59.8517
C 61.9616 91.4285 57.4921
C 61.3013 89.5669 55.1538
C 61.1965 86.4596 54.661
C 59.9441 83.9135 55.8419
C 58.0252 82.799 57.8816
C 55.4507 83.2198 59.4257
C 52.5591 84.0211 58.791
C 50.0791 82.9738 57.238
C 48.6084 80.3934 56.4512
C 48.2116 77.8027 58.0383
C 48.2271 76.3284 60.7689
C 47.3799 77.1506 63.6223
C 45.496 79.0063 65.1333
C 42.6123 79.9157 64.6415
C 39.7971 78.7864 64.416
C 37.9322 76.4424 63.6408
C 37.6239 74.4998 61.3563
C 36.8531 74.7155 58.4012
C 34.7224 75.9565 56.5269
C 31.7765 75.4496 55.7403
C 29.6876 73.2999 55.4918
C 29.967 70.2981 55.8745
C 30.9815 67.653 54.6715
C 32.4661 66.3565 52.2857
C 31.7621 65.9189 49.3633
C 30.5923 67.7115 47.1812
C 31.037 70.3874 45.8019
C 33.4035 72.2718 45.1916
C 36.5247 72.182 44.8538
C 38.7925 70.527 43.501
C 40.0957 70.4063 40.7349
C 41.4369 72.1664 38.5469
C 43.1876 74.7051 38.5787
C 45.2185 76.286 40.2893
C 47.667 76.1564 42.1958
C 50.3395 76.7174 43.7991
C 53.1281 77.9114 43.5304
C 56.037 77.5273 42.611
C 58.1988 75.3983 42.2979
C 59.4719 72.9595 43.7118
C 59.5382 71.3719 46.4014
C 58.6595 71.1038 49.341
C 57.894 70.846 52.3545
C 57.526 70.2244 55.3197
C 58.5233 68.7264 57.8581
C 60.695 66.8425 59.0514
C 63.2352 65.0159 59.0869
C 65.1107 63.3129 60.8299
C 67.4379 63.5399 62.8885
C 70.2986 64.7138 63.2238
C 72.4921 66.5186 61.8953
C 74.3613 66.4114 59.4128
C 76.3535 65.0381 57.5036
C 78.7117 63.1474 57.2885
C 81.4852 62.5812 56.0854
C 83.1241 61.8122 53.5956
C 83.484 59.8793 51.2127
C 82.4817 57.9038 49.0804
C 81.1218 56.8078 46.5502
C 80.7052 56.4921 43.5281
C 81.1816 55.0388 40.7884
C 80.4425 52.7067 38.9463
C 78.3377 51.0908 37.4814
C 76.071 51.3625 35.362
C 75.4894 50.8702 32.3266
C 74.4896 48.8744 30.1754
C 72.0403 47.1032 29.578
C 69.0882 46.4151 30.0948
C 66.6077 48.0575 30.8305
C 65.9074 51.0354 31.4246
C 65.7984 54.1368 31.4209
C 65.6025 57.0546 32.3327
C 65.7529 59.7137 34.0192
C 66.9857 61.8207 35.9527
C 69.4557 63.2283 37.2189
C 70.7211 64.2047 39.8911
C 70.2681 64.35 42.9417
C 69.3746 63.1193 45.6777
C 69.6853 61.2691 48.1918
C 70.8736 59.5463 50.5033
C 71.8606 57.5948 52.7539
C 72.3672 54.9974 54.486
C 73.2368 52.2244 55.5301
C 75.523 50.1355 55.7949
C 77.5578 48.0812 54.8226
C 78.3857 45.9191 52.9102
C 77.5241 43.4376 51.3506
C 75.027 41.7416 50.839
C 72.1711 41.0586 51.5189
C 70.4873 40.5439 54.0374
C 69.2509 40.4706 56.9122
C 68.1924 39.8917 59.7989
C 68.3229 37.5822 61.8342
C 67.7333 34.5446 61.9475
C 65.6601 32.2713 61.419
C 62.8855 32.4002 59.9766
C 62.1634 31.398 57.1938
C 62.7583 30.7447 54.2311
C 63.7485 30.8517 51.3681
C 65.1734 31.6814 48.7771
C 66.7758 32.4264 46.2944
C 69.051 31.8987 44.2895
C 70.9961 29.7775 43.4465
C 71.3863 26.8111 42.7687
C 70.009 24.0076 42.7945
C 67.5462 22.6586 44.0766
C 64.4755 22.6417 44.3578
C 61.7227 23.0753 43.0608
C 58.9192 22.0801 42.5965
C 56.4747 20.4605 43.7211
C 54.5809 20.582 46.0758
C 53.1748 22.387 48.0916
C 50.8665 24.4895 48.5203
C 47.9439 25.1592 47.5949
C 45.4154 25.683 45.8059
C 43.9301 26.7131 43.2773
C 42.4346 28.2418 40.948
C 40.3136 30.0869 39.4901
C 37.8799 31.9567 38.7727
C 35.476 33.7496 39.4823
C 33.6939 34.8373 41.7004
C 32.2083 34.9105 44.3167
C 31.832 34.4121 47.3636
C 33.148 32.8171 49.6679
C 35.1003 30.9691 51.3635
C 36.5023 29.4877 53.6662
C 35.9867 27.8181 56.2569
C 36.4864 25.1506 57.6271
C 38.6585 23.068 58.1784
C 41.5498 22.9002 59.0454
C 43.4609 22.8854 61.4744
C 43.7512 23.9506 64.3269
C 45.1695 26.2432 65.8557
C 47.5847 28.0447 66.3942
C 50.6885 27.9634 66.2939
C 53.6134 27.9475 67.3635
C 55.2629 28.2482 69.8813
C 57.0379 30.2099 71.4036
C 59.2622 32.331 70.9547
C 59.2923 35.1405 69.7527
C 57.8257 37.7984 69.1316
C 56.3144 39.8746 70.739
C 55.4371 40.845 73.5262
C 54.6879 43.3579 75.1483
C 53.446 46.1688 74.688
C 51.1141 47.3695 72.991
C 48.5433 46.0445 72.0032
C 46.2805 43.9973 71.406
C 43.3124 43.5963 72.2614
C 40.7749 44.8541 73.3498
C 39.0029 47.3311 72.7754
C 37.6262 49.1189 70.7353
C 36.1791 48.4838 68.0556
C 34.2265 46.3172 67.116
C 31.5401 45.0189 67.5515
C 28.6994 45.8648 68.5334
C 26.5533 47.9557 67.8293
C 25.4148 49.6409 65.5343
C 26.0102 51.719 63.3215
C 26.9154 54.3321 61.9279
C 26.0076 56.9544 60.5578
C 24.061 57.6674 58.2916
C 23.1494 57.3256 55.3434
C 23.8555 56.2371 52.4974
C 26.0014 55.9993 50.2848
C 26.9064 55.7323 47.3614
C 26.8044 54.6753 44.4503
C 26.7375 52.6222 42.1066
C 26.4423 49.598 41.155
C 25.8707 46.6382 40.7299
C 23.4374 45.4315 39.3459
C 22.3254 44.3422 36.7298
C 23.3669 44.7278 33.8252
C 25.8501 44.0066 32.1448
C 27.7018 41.5603 31.6272
C 28.3664 38.7357 30.5097
C 27.1776 36.2793 28.9839
C 24.547 34.6964 29.0846
C 22.3785 33.464 30.8489
C 22.3244 31.7767 33.402
C 23.9644 29.8277 35.0007
C 25.5567 27.2485 34.6061
C 25.3652 24.6331 32.905
C 23.4759 22.2034 32.4518
C 21.2807 20.6324 33.9282
C 20.9877 18.9594 36.5513
C 22.5266 16.5267 37.4641
C 25.4445 15.5307 37.9162
C 28.0565 16.7581 38.8895
C 28.9894 18.7327 41.0684
C 28.1679 19.5987 43.8067
C 26.9831 18.5978 46.3945
C 25.6896 16.4646 48.0896
N 63.2069 91.5278 71.2352
N 63.5727 87.9513 70.5552
N 65.1635 82.739 66.7006
N 68.0849 83.0669 63.5436
N 70.2535 87.6656 60.7012
N 68.788 92.1193 60.2946
N 62.7725 93.6492 61.2356
N 59.7985 92.759 58.282
N 60.431 90.9496 53.0753
N 62.208 85.6636 52.3923
N 61.3987 82.0466 54.6365
N 58.9756 80.635 58.9621
N 55.8021 83.1279 62.0661
N 51.8156 86.2533 60.0771
N 48.5743 85.0256 56.4945
N 47.1767 80.4194 54.288
N 48.1898 75.7944 56.2111
N 48.6087 73.7318 60.4489
N 48.4755 75.6951 65.5978
N 47.1827 80.2821 66.6819
N 42.2405 82.5036 64.7346
N 38.096 80.7741 64.9268
N 36.8657 75.6713 65.9397
N 37.4399 71.9967 62.1125
N 38.6364 73.2969 57.1084
N 35.5961 77.8015 54.8179
N 30.8024 77.7887 55.2415
N 27.2422 74.3126 55.5674
N 28.5348 69.0377 57.7434
N 31.2686 66.2497 56.8192
N 34.5073 64.7071 51.8949
N 33.652 64.0484 49.8792
N 29.1155 65.958 46.0104
N 28.6233 70.7338 44.8784
N 32.7661 74.8336 45.024
N 38.0896 72.703 46.9101
N 39.936 68.3911 44.6564
N 40.9375 67.8257 40.7668
N 41.7986 69.7871 37.2994
N 43.0976 76.1741 36.4318
N 45.051 78.6096 39.1588
N 47.4731 74.4053 44.2775
N 49.8188 74.8379 45.7213
N 53.3862 80.4551 44.1723
N 57.1287 79.7329 41.5825
N 58.842 74.6163 39.8739
N 60.1579 70.8119 42.196
N 59.0834 68.7458 45.7765
N 57.1153 69.1085 48.3738
N 55.3458 70.088 52.1261
N 55.3409 68.8751 55.7991
N 56.267 67.5594 58.623
N 58.7324 65.3496 60.0466
N 63.0775 62.6518 57.9032
N 63.9736 61.0793 59.7555
N 66.9485 61.3106 64.2445
N 70.9675 64.1328 65.7294
N 72.9351 68.2793 63.7227
N 74.2996 68.8526 58.4617
N 75.2809 66.2479 55.3306
N 78.661 60.8941 58.7167
N 82.1567 61.3105 58.3034
N 84.9821 63.4357 52.8328
N 85.1589 61.6164 50.0189
N 82.9964 55.5122 50.0716
N 79.1155 55.3494 47.4562
N 79.2215 58.5104 42.589
N 82.5864 56.8163 39.4047
N 82.8663 51.8456 38.3997
N 78.1082 48.7091 38.6204
N 73.852 52.3664 36.3616
N 75.6703 53.3182 31.3133
N 76.3191 49.1101 28.3569
N 73.1039 44.9635 28.3251
N 68.1996 44.2125 31.1146
N 64.7099 47.1274 32.4502
N 64.2584 50.3143 33.444
N 63.7818 53.1803 32.8879
N 62.9593 56.6379 32.2914
N 63.6806 60.4707 35.6153
N 64.4565 61.8357 36.9282
N 71.6555 63.4273 35.8092
N 72.8104 65.5754 39.1369
N 69.1767 66.5921 43.8017
N 66.6915 62.7106 45.6324
N 67.2603 60.2452 47.6925
N 68.1881 59.1386 50.374
N 69.5244 57.6814 53.9429
N 70.0708 53.7202 54.8265
N 70.7911 51.1614 55.6356
N 74.7834 49.1112 58.0983
N 79.6781 48.2868 56.391
N 80.9946 45.6798 52.6704
N 79.381 42.1168 50.0886
N 74.2183 41.492 48.2992
N 69.9681 41.5978 49.937
N 68.7369 42.1795 52.9345
N 67.4258 42.3711 57.1285
N 66.0657 41.5301 60.0527
N 67.6392 39.6228 63.4372
N 69.7412 33.3402 63.3095
N 67.3157 30.3389 62.1343
N 60.6045 33.8623 59.973
N 60.0214 33.0064 57.7289
N 60.1219 31.0057 53.9798
N 61.5102 31.287 49.9381
N 63.1883 32.6528 47.3541
N 65.0323 34.2064 45.4098
N 69.0676 34.2667 43.3223
N 73.1003 31.3802 43.4819
N 73.1895 26.6684 40.8218
N 71.2549 22.1132 41.3867
N 67.6556 20.8186 45.9554
N 64.3885 22.1742 46.9461
N 61.173 25.3151 41.7746
N 58.481 23.2864 40.2351
N 55.8065 18.0326 42.8251
N 54.1188 18.0613 46.6103
N 54.6574 23.5089 49.9519
N 51.9169 26.8024 49.5768
N 47.5919 27.2124 49.3113
N 45.2399 28.0518 47.0907
N 45.5342 28.834 43.0802
N 44.4997 29.9174 40.425
N 42.4193 31.3458 38.4431
N 38.6786 34.0373 37.2675
N 35.9057 36.1921 38.5399
N 33.8286 37.3479 40.7138
N 32.2356 37.5096 44.9633
N 31.7926 36.9096 48.3435
N 32.9479 35.2442 50.7939
N 37.5816 32.0289 51.4923
N 38.558 31.2992 53.3417
N 35.2903 29.4366 58.2568
N 34.1282 24.423 58.6703
N 37.6511 20.7571 57.4286
N 43.2874 22.7153 57.0826
N 45.4608 21.594 60.2357
N 43.3743 21.9466 66.0123
N 43.6932 27.4417 67.7011
N 46.2651 30.2448 67.1721
N 51.9029 28.6205 64.0233
N 54.7256 27.1025 65.1538
N 55.3641 26.216 71.5178
N 56.1007 29.3852 73.7614
N 61.7918 32.6564 71.672
N 61.885 35.0392 69.6956
N 57.1232 39.2328 66.9204
N 55.582 40.3232 68.1792
N 54.4888 39.4058 75.5025
N 55.6716 43.0457 77.6184
N 54.7199 48.4341 74.8598
N 51.3805 48.6614 70.6339
N 49.2398 47.4958 69.7221
N 46.4221 42.6876 69.0191
N 43.1499 41.6656 70.4456
N 39.9904 43.7134 75.5528
N 38.3227 48.1828 75.2391
N 38.3427 51.6303 70.228
N 36.7263 48.9837 65.4737
N 35.3442 45.7452 64.6745
N 32.0036 42.8637 66.0658
N 27.8823 44.5148 70.7037
N 25.8452 48.5448 70.2843
N 22.9433 49.0546 64.8895
N 25.6363 49.6762 61.5163
N 29.5408 54.6293 62.14
N 28.4325 57.9349 61.1203
N 22.6209 59.7376 58.8807
N 20.683 57.8353 54.8465
N 22.2155 54.2005 52.1754
N 28.4707 55.4713 50.9724
N 29.5113 55.8252 48.0476
N 29.1133 55.9664 44.3713
N 29.115 53.4294 41.2129
N 28.6785 48.0613 41.2745
N 28.3925 45.7919 41.4066
N 21.5121 44.3255 40.8037
N 20.1741 43.3514 37.7169
N 21.774 45.7798 32.0879
N 25.7916 46.2484 30.7814
N 30.1511 41.8853 32.5917
N 30.9811 38.2871 31.1015
N 28.1583 35.051 26.8767
N 24.219 34.0358 26.5708
N 19.8734 33.603 29.9572
N 20.4748 32.5605 35.0458
N 24.6642 30.2249 37.5327
N 28.1161 27.5543 35.3323
N 27.7404 24.2129 31.6337
N 23.3514 21.4485 29.9455
N 19.0165 21.0205 32.6324
N 18.8906 19.5528 38.0905
N 21.0115 14.8116 38.7442
N 25.4855 13.0897 37.036
N 30.295 15.7226 37.8984
N 31.4262 19.7174 40.5006
N 28.2166 22.1564 44.3496
N 25.8899 18.7769 48.8204
N 24.6286 14.2032 48.9837
Au 47.6094 48.7462 67.3264
Au 47.2696 51.5721 67.1719
Au 45.2712 45.5345 66.5456
Au 42.6032 45.1626 65.6138
Au 49.1213 63.1506 35.0797
Au 39.7586 50.2905 31.9535
Au 54.6612 63.9227 37.0145
Au 40.4644 44.4229 32.2743
Au 66.7579 54.0537 41.3833
Au 52.5611 34.5539 36.6431
Au 67.4637 48.1861 41.7041
Au 58.101 35.326 38.5779
Au 50.1524 66.5196 39.8353
Au 35.9556 47.0198 35.0951
Au 68.4948 51.5552 46.4597
Au 54.298 32.0553 41.7196
Au 44.7837 66.7101 55.1309
Au 30.5869 47.2102 50.3907
Au 63.1262 51.7456 61.7553
Au 48.9294 32.2458 57.0151
Au 40.9807 63.4393 58.2726
Au 31.618 50.5793 55.1464
Au 46.5206 64.2115 60.2074
Au 32.3207 44.7142 55.4661
Au 58.6174 54.3425 64.5762
Au 44.4205 34.8427 59.836
Au 59.3232 48.4749 64.897
Au 49.9605 35.6148 61.7708
Au 46.8838 64.4369 36.4913
Au 51.3658 61.8554 33.6872
Au 37.5207 51.5763 33.365
Au 42.0026 48.9948 30.561
Au 55.1662 65.5913 39.384
Au 54.1413 62.2423 34.6566
Au 42.3562 46.0551 30.7217
Au 38.5759 42.8038 33.8446
Au 67.2635 55.7219 43.753
Au 66.2386 52.3728 39.0256
Au 66.5922 49.4331 39.1863
Au 57.2291 36.5725 36.06
Au 54.4535 36.1856 35.0907
Au 50.6732 32.9344 38.2136
Au 68.3187 46.9494 44.2326
Au 58.9534 34.0857 41.1056
Au 52.9073 66.8924 40.7973
Au 47.3987 66.1225 38.8734
Au 35.6153 49.9376 34.939
Au 36.3169 44.1049 35.2579
Au 68.1337 54.4701 46.2963
Au 51.5433 31.6826 40.7569
Au 68.8353 48.6373 46.6152
Au 57.0503 32.4501 42.6803
Au 47.5384 67.0828 56.0935
Au 42.0315 66.3153 54.1702
Au 40.1284 64.6797 55.7449
Au 30.763 51.816 52.6179
Au 30.2464 50.1281 50.2353
Au 30.948 44.2953 50.5542
Au 48.4086 65.831 58.6369
Au 31.8182 43.0435 53.0975
Au 60.5059 55.9616 63.0059
Au 62.7648 54.6605 61.5926
Au 43.9155 33.1741 57.4665
Au 46.1745 31.873 56.0532
Au 63.4664 48.8278 61.9115
Au 61.5611 47.1891 63.4855
Au 52.198 34.3285 60.3592
Au 51.6814 32.6406 57.9766
Au 41.8527 62.1929 60.7905
Au 32.4896 49.3323 57.6642
Au 44.6282 62.5798 61.7598
Au 32.8432 46.3925 57.8249
Au 56.7284 52.708 66.1298
Au 57.0791 49.7706 66.2895
Au 47.716 36.91 63.1632
Au 44.9434 36.5208 62.1949
Au 48.5654 57.0634 30.6269
Au 46.1374 53.7403 29.816
Au 59.2952 58.5641 34.3743
Au 47.5051 42.37 30.4377
Au 62.4252 56.0106 35.5047
Au 50.6351 39.8164 31.5681
Au 63.7929 44.6402 36.1264
Au 61.3703 41.3127 35.3175
Au 41.9104 60.8978 34.7851
Au 39.4878 57.5702 33.9762
Au 60.8158 63.5329 41.388
Au 41.8964 37.5463 35.0709
Au 63.9459 60.9793 42.5184
Au 45.0265 34.9927 36.2014
Au 66.3545 40.9553 43.6131
Au 63.9319 37.6278 42.8042
Au 43.9085 67.4264 44.0007
Au 32.1183 51.2322 40.0641
Au 52.0787 68.5651 46.8542
Au 33.1593 42.5786 40.5371
Au 67.3116 56.1375 52.3556
Au 48.3922 30.151 46.0386
Au 68.3483 47.4781 52.8273
Au 56.5624 31.2898 48.8921
Au 42.5193 67.4757 47.9584
Au 30.7292 51.2815 44.0218
Au 50.6895 68.6144 50.8119
Au 31.7701 42.6279 44.4949
Au 65.9343 56.2031 56.3173
Au 47.0031 30.2003 49.9963
Au 66.9634 47.5332 56.7864
Au 55.1733 31.339 52.8498
Au 35.1499 61.1376 54.0463
Au 32.7272 57.8101 53.2374
Au 54.0553 63.7727 60.6491
Au 35.1359 37.7861 54.3321
Au 57.1853 61.2191 61.7796
Au 38.2659 35.2325 55.4625
Au 59.5939 41.1952 62.8743
Au 57.1713 37.8676 62.0654
Au 37.7114 57.4527 61.533
Au 35.2888 54.1252 60.7241
Au 48.4466 58.949 65.2824
Au 36.6565 42.7548 61.3458
Au 51.5767 56.3954 66.4128
Au 39.7865 40.2012 62.4762
Au 52.9444 45.0251 67.0344
Au 50.5218 41.6975 66.2256
Au 51.1362 52.8511 29.3793
Au 59.1495 53.968 32.1779
Au 52.1572 44.3638 29.8433
Au 60.1704 45.4807 32.642
Au 37.773 60.5478 37.7397
Au 62.2054 63.9532 46.2729
Au 40.8858 34.6699 39.1545
Au 65.3182 38.0754 47.6877
Au 39.2644 65.421 44.6186
Au 32.2721 55.8168 42.2839
Au 55.6836 67.7096 50.3531
Au 34.364 38.4262 43.2347
Au 64.7178 60.3392 53.6158
Au 43.3981 31.0558 46.4974
Au 66.8096 42.9486 54.5666
Au 59.8173 33.3444 52.2319
Au 33.7635 60.69 49.1628
Au 58.196 64.0955 57.696
Au 36.8763 34.8121 50.5776
Au 61.3088 38.2176 59.1108
Au 38.9114 53.2847 64.2085
Au 46.9246 54.4016 67.0072
Au 39.9323 44.7974 64.6725
Au 47.9455 45.9143 67.4712
Au 46.3308 62.7105 34.1179
Au 48.5771 61.4166 32.7126
Au 39.4471 53.2554 31.8195
Au 41.6934 51.9616 30.4141
Au 57.4564 64.2612 38.0036
Au 56.9427 62.5827 35.6343
Au 40.8645 41.4716 32.4637
Au 42.7592 43.1011 30.8986
Au 66.3502 57.0052 41.2156
Au 65.8365 55.3267 38.8463
Au 49.7583 34.2157 35.6758
Au 51.653 35.8452 34.1106
Au 67.7676 45.2214 41.8599
Au 66.9023 46.4663 39.3307
Au 60.8839 35.7664 39.5615
Au 60.0186 37.0112 37.0323
Au 50.6478 68.1826 42.2632
Au 47.8878 67.7979 41.2993
Au 34.056 45.3931 36.7234
Au 33.7043 48.3164 36.5635
Au 69.3246 50.3089 49.0412
Au 68.973 53.2322 48.8814
Au 55.1412 30.8274 44.3055
Au 52.3811 30.4427 43.3415
Au 46.7006 68.3227 53.5089
Au 43.9406 67.938 52.545
Au 30.1088 45.5331 47.9691
Au 29.7571 48.4565 47.8092
Au 65.3774 50.449 60.2869
Au 65.0258 53.3723 60.1271
Au 51.1938 30.9675 55.5516
Au 48.434 30.5828 54.5872
Au 39.0632 61.7542 59.8182
Au 38.1979 62.999 57.289
Au 32.1795 52.2991 57.5198
Au 31.3142 53.544 54.9906
Au 47.4287 62.9202 62.7399
Au 49.3234 64.5497 61.1747
Au 33.2453 43.4387 58.0042
Au 32.7316 41.7602 55.6348
Au 56.3226 55.6642 65.9519
Au 58.2172 57.2938 64.3867
Au 42.1391 36.1827 61.2162
Au 41.6254 34.5042 58.8469
Au 57.3884 46.8038 66.4363
Au 59.6347 45.51 65.031
Au 50.4929 37.3492 64.1715
Au 52.751 36.0549 62.7326
Au 53.4404 56.0784 30.1098
Au 48.7835 49.6819 28.5549
Au 56.1809 56.4604 31.0669
Au 49.1326 46.7793 28.7136
Pt 62.1978 51.5516 33.2399
Pt 55.1495 41.8705 30.8866
Pt 62.5469 48.649 33.3986
Pt 57.8899 42.2524 31.8437
Pt 40.0908 63.7674 38.4617
Pt 35.4338 57.3708 36.9068
Pt 59.2338 66.4356 45.1476
Pt 37.8727 37.0953 38.0153
Pt 65.2506 61.5267 47.3206
Pt 43.8895 32.1865 40.1883
Pt 67.6895 41.2512 48.4291
Pt 63.0326 34.8546 46.8742
Pt 40.6008 65.434 40.8142
Pt 33.5525 55.7529 38.4609
Pt 57.0034 67.7202 46.543
Pt 35.6423 38.3799 39.4107
Pt 66.1098 60.2908 49.8318
Pt 44.7487 30.9505 42.6995
Pt 68.1996 42.9178 50.7816
Pt 61.1513 33.2367 48.4282
Pt 37.9305 65.5287 48.4222
Pt 30.8822 55.8476 46.0689
Pt 54.333 67.8149 54.151
Pt 32.9719 38.4746 47.0187
Pt 63.4395 60.3855 57.4398
Pt 42.0784 31.0452 50.3075
Pt 65.5292 43.0125 58.3896
Pt 58.4809 33.3314 56.0362
Pt 36.0492 63.9108 49.9763
Pt 31.3922 57.5142 48.4214
Pt 55.1922 66.5789 56.6622
Pt 33.8311 37.2386 49.5299
Pt 61.2091 61.6701 58.8352
Pt 39.848 32.3298 51.7029
Pt 63.648 41.3946 59.9437
Pt 58.991 34.998 58.3888
Pt 41.1918 56.5129 65.0068
Pt 36.5348 50.1164 63.4519
Pt 43.9323 56.8949 65.9639
Pt 36.884 47.2138 63.6106
Pt 49.9492 51.9861 68.1369
Pt 42.9009 42.305 65.7836
Pt 50.2983 49.0835 68.2956
Pt 45.6413 42.687 66.7407
Pt 44.6268 65.7284 37.9109
Pt 35.2697 52.8761 34.7867
Pt 55.6798 67.269 41.7713
Pt 36.6779 41.1691 35.4267
Pt 67.7693 57.4059 46.1374
Pt 48.7673 31.3061 39.7928
Pt 69.1775 45.699 46.7775
Pt 59.8204 32.8467 43.6532
Pt 39.2614 65.9187 53.1973
Pt 29.9043 53.0664 50.073
Pt 50.3144 67.4593 57.0577
Pt 31.3125 41.3594 50.7131
Pt 62.4038 57.5963 61.4238
Pt 43.4019 31.4964 55.0792
Pt 63.8121 45.8893 62.0638
Pt 54.455 33.037 58.9396
Pt 53.6226 60.5471 32.2828
Pt 44.2655 47.6948 29.1586
Pt 65.7121 50.6841 36.649
Pt 56.355 37.8318 33.5247
Pt 42.7268 60.9336 63.3257
Pt 33.3697 48.0813 60.2015
Pt 54.8162 51.0706 67.6919
Pt 45.4591 38.2183 64.5676
Pt 50.8405 60.1237 31.3111
Pt 43.9438 50.6508 29.0083
Pt 56.4135 60.9005 33.2575
Pt 44.6538 44.748 29.331
Pt 65.3242 53.6308 36.4756
Pt 66.0342 47.7281 36.7983
Pt 59.1375 38.2551 34.4955
Pt 53.5645 37.4783 32.5491
Pt 39.9443 60.5103 62.355
Pt 33.0475 51.0373 60.0522
Pt 45.5173 61.287 64.3014
Pt 33.7576 45.1346 60.3749
Pt 54.428 54.0174 67.5195
Pt 55.138 48.1146 67.8422
Pt 48.2413 38.6417 65.5394
Pt 42.6683 37.8649 63.593
Pt 44.0851 64.0146 35.5374
Pt 37.1883 54.5416 33.2347
Pt 57.9584 65.9483 40.3828
Pt 38.9558 39.8476 34.038
Pt 66.8691 58.6786 43.6009
Pt 47.8665 32.5779 37.2561
Pt 68.6366 43.9845 44.4043
Pt 61.7398 34.5116 42.1015
Pt 45.1223 67.4038 40.3215
Pt 33.3626 51.2514 36.3951
Pt 53.4226 68.5607 43.2205
Pt 34.4201 42.46 36.8757
Pt 68.6163 56.1651 48.7077
Pt 49.6138 30.0644 42.3629
Pt 69.6738 47.3737 49.1884
Pt 57.9141 31.2213 45.2619
Pt 41.1677 67.5441 51.5886
Pt 37.3419 64.2538 54.749
Pt 30.4452 54.7809 52.4462
Pt 29.4079 51.3917 47.6621
Pt 49.468 68.701 54.4875
Pt 30.4654 42.6003 48.1427
Pt 51.2152 66.1875 59.5943
Pt 32.2127 40.0868 53.2496
Pt 60.1259 58.9178 62.8125
Pt 64.6617 56.3054 59.9748
Pt 41.1234 32.8171 56.4677
Pt 45.6591 30.2047 53.63
Pt 65.7192 47.514 60.4554
Pt 61.8935 44.2238 63.6158
Pt 54.9967 34.7508 61.313
Pt 53.9594 31.3616 56.529
Pt 43.5985 57.931 31.0573
Pt 62.5413 60.5582 37.6734
Pt 46.0132 37.8562 32.1548
Pt 64.9667 40.498 38.7744
Pt 47.1261 69.4574 47.3277
Pt 30.5874 46.7409 41.8056
Pt 68.4943 52.0245 55.0449
Pt 51.9556 29.3079 49.5228
Pt 34.1151 58.2674 58.076
Pt 53.0685 60.9092 64.6957
Pt 36.5298 38.1927 59.1736
Pt 55.4832 40.8344 65.7932
Pt 41.1251 67.1044 43.1932
Pt 31.6666 54.1128 40.0351
Pt 54.7442 69.0036 47.9497
Pt 33.4009 39.6877 40.8234
Pt 66.9666 59.032 52.3639
Pt 45.6233 29.7162 45.2376
Pt 68.7009 44.607 53.1523
Pt 59.2424 31.6154 49.9941
Pt 39.8394 67.15 46.8564
Pt 30.3808 54.1584 43.6982
Pt 53.4594 69.0484 51.6133
Pt 32.1161 39.7326 44.4869
Pt 65.6799 59.0784 56.0267
Pt 44.3366 29.7626 48.9004
Pt 67.4152 44.6526 56.8154
Pt 57.9566 31.661 53.6573
Pt 50.671 55.6905 29.1589
Pt 48.4287 52.6107 28.4102
Pt 58.9408 56.8432 32.0472
Pt 49.4823 43.8516 28.8891
Pt 61.8379 54.4797 33.0935
Pt 52.3794 41.488 29.9354
Pt 62.8915 45.7206 33.5724
Pt 60.6492 42.6407 32.8237
Pt 39.5859 62.0751 36.094
Pt 37.3444 58.9963 35.3456
Pt 61.4758 65.1262 43.7392
Pt 40.1325 35.8103 36.6129
Pt 64.3729 62.7626 44.7855
Pt 43.0296 33.4468 37.6592
Pt 67.1617 39.5777 46.0531
Pt 64.9194 36.4978 45.3044
Pt 34.1623 62.2675 51.5461
Pt 31.92 59.1877 50.7974
Pt 56.0522 65.3186 59.1913
Pt 34.7089 36.0027 52.065
Pt 58.9493 62.955 60.2376
Pt 37.606 33.6392 53.1113
Pt 61.7381 39.7701 61.5052
Pt 59.4958 36.6903 60.7565
Pt 38.4326 56.1247 64.0268
Pt 36.1903 53.0448 63.2781
Pt 46.7024 57.2774 66.9151
Pt 37.2439 44.2857 63.757
Pt 49.5995 54.9138 67.9614
Pt 40.1409 41.9222 64.8033
Pt 50.6531 46.1547 68.4403
Pt 48.4117 43.0741 67.692
Pt 45.8515 56.6333 29.6478
Pt 62.0367 58.8892 35.3006
Pt 47.9136 39.4906 30.585
Pt 64.0987 41.7465 36.2378
Pt 41.3455 59.2286 32.4668
Pt 63.0671 62.2562 40.0533
Pt 44.1129 36.2219 33.7247
Pt 65.8345 39.2495 41.3111
Pt 44.3579 69.0716 46.3609
Pt 30.2348 49.6729 41.6453
Pt 49.8944 69.8432 48.2945
Pt 30.9402 43.8089 41.9659
Pt 68.1416 54.9564 54.8846
Pt 49.1874 28.9221 48.5559
Pt 68.847 49.0925 55.2052
Pt 54.7395 29.7153 50.4948
Pt 33.2472 59.5159 55.5394
Pt 54.9688 62.5435 63.1258
Pt 36.0146 36.5092 56.7972
Pt 57.7362 39.5368 64.3836
Pt 34.983 57.0189 60.6127
Pt 51.1682 59.2748 66.2655
Pt 37.0451 39.8762 61.5499
Pt 53.2302 42.1321 67.2027
C 162 94.2264 43.0303
C 162.272 91.3114 42.2576
C 161.954 88.8916 40.4881
C 161.489 88.2374 37.5014
C 160.179 89.8522 35.2984
C 157.847 91.7152 34.5858
C 155.032 92.4292 35.6446
C 152.214 91.2192 35.4531
C 150.774 88.5902 34.8338
C 151.231 85.5338 35.432
C 151.742 83.6309 37.7908
C 151.914 83.3735 40.7889
C 150.88 84.3326 43.4724
C 148.15 84.795 44.7897
C 145.647 83.2019 45.7164
C 144.778 80.503 46.8997
C 146.181 78.7254 48.9634
C 148.298 78.4241 51.212
C 149.239 80.2786 53.4951
C 148.301 82.5549 55.2882
C 145.636 83.1724 56.667
C 143.74 82.0144 58.7445
C 142.525 79.5337 60.1387
C 141.398 76.8547 59.3385
C 138.929 75.9008 57.8009
C 135.861 76.2964 57.638
C 133.35 75.4935 59.2518
C 132.248 73.3936 61.1017
C 133.505 70.7775 62.0024
C 134.213 67.8837 61.2289
C 134.16 65.7799 58.96
C 131.937 64.237 57.58
C 129.231 65.032 56.4012
C 127.969 66.9691 54.4222
C 128.81 68.4947 51.8747
C 130.908 68.3138 49.5447
C 132.171 66.2879 47.5417
C 131.429 65.1188 44.8128
C 130.567 65.9078 41.9288
C 131.181 68.2789 40.0546
C 133.308 70.4202 39.3928
C 136.327 71.065 39.0532
C 139.134 72.2313 38.1641
C 140.684 73.2571 35.7519
C 142.343 72.5774 33.254
C 144.307 70.5161 32.1591
C 146.784 68.829 32.926
C 148.943 68.408 35.1435
C 150.21 69.2904 37.8087
C 151.603 70.212 40.4438
C 153.355 70.7837 42.8763
C 156.077 70.3966 44.3325
C 158.923 69.145 44.1841
C 161.3 67.5015 42.9841
C 164.224 66.6265 43.3599
C 167.153 67.6576 43.1071
C 169.139 68.8997 41.0607
C 169.425 70.0718 38.1663
C 169.271 69.0309 35.2404
C 169.909 67.0463 32.9699
C 172.013 65.2447 31.7418
C 173.445 64.2858 29.1942
C 173.297 62.6296 26.6036
C 172.595 59.9284 25.279
C 171.064 57.2708 25.0638
C 168.784 55.266 24.5788
C 166.676 53.8 22.9017
C 165.706 51.4039 21.1231
C 164.646 48.5327 21.0241
C 162.627 46.4535 21.9125
C 159.569 45.8592 21.9447
C 157.38 44.2234 20.4199
C 155.844 41.5397 20.1958
C 154.158 39.6498 21.9499
C 152.506 39.1847 24.5014
C 150.705 40.9577 26.2346
C 149.756 43.9257 26.2891
C 148.834 46.7822 25.5016
C 148.47 49.8232 25.4446
C 148.913 52.9294 25.7486
C 150.453 55.6337 25.6356
C 152.672 57.4477 24.4215
C 155.004 59.3962 25.1002
C 156.539 60.7071 27.436
C 157.928 60.6232 30.2398
C 160.228 59.8946 32.2448
C 163.01 59.2144 33.4793
C 165.668 58.2975 34.8731
C 167.825 56.5794 36.4215
C 169.865 54.4366 37.3051
C 172.271 52.6375 36.5063
C 173.709 50.3884 35.0305
C 173.706 47.6632 33.7695
C 172.773 44.7623 33.9868
C 171.085 42.9745 35.8107
C 169.604 42.5783 38.4059
C 170.085 43.0618 41.4023
C 170.996 44.0948 44.2131
C 172.182 44.6683 47.0509
C 174.175 43.3291 48.9813
C 174.637 40.5665 50.3012
C 173.405 38.2443 51.9849
C 170.437 37.7754 52.8614
C 168.441 35.7658 51.7447
C 167.202 34.0221 49.5126
C 166.109 33.0221 46.8681
C 165.308 32.7983 43.9117
C 164.728 32.5401 40.9312
C 165.283 31.3009 38.169
C 166.755 29.0393 36.8605
C 167.421 26.0462 36.9572
C 167.188 23.4573 38.6894
C 166.552 22.6846 41.6095
C 164.484 22.7457 43.8962
C 161.541 22.614 44.772
C 159.468 21.4874 46.6425
C 158.82 20.4043 49.5184
C 158.872 21.4086 52.3705
C 158.613 23.8387 54.1943
C 156.622 25.9188 55.4746
C 153.722 26.147 56.6525
C 150.611 25.9103 57.017
C 147.664 25.8648 56.0295
C 144.699 26.356 55.0458
C 141.736 27.4699 54.9911
C 138.999 28.8903 55.6445
C 137.196 30.7927 57.266
C 136.983 32.6359 59.6818
C 137.511 33.7013 62.4465
C 139.275 34.4182 64.906
C 142.111 33.8542 66.0133
C 145.1 32.828 66.3447
C 147.967 32.3691 67.3609
C 149.661 31.8281 69.9305
C 151.606 29.9051 71.2578
C 154.105 28.2215 70.729
C 156.809 28.433 69.3939
C 159.731 29.3804 69.7426
C 161.437 31.4704 71.1831
C 162.81 34.191 70.6181
C 164.426 36.0856 68.8389
C 166.658 36.0044 66.6795
C 169.472 36.4348 65.4166
C 172.172 37.7046 65.9163
C 173.891 40.1214 65.1957
C 174.665 41.9262 62.7887
C 173.174 44.0508 61.1753
C 170.992 46.245 61.0168
C 170.328 48.7659 62.5604
C 171.164 50.7308 64.7781
C 170.949 53.668 65.6915
C 168.99 56.0679 65.4467
C 165.897 56.4929 65.5522
C 163.757 54.8618 67.0008
C 162.281 52.7195 68.7044
C 160.752 52.65 71.4167
C 159.233 54.2046 73.5343
C 156.906 56.2469 73.6656
C 154.139 57.0903 72.7252
C 151.577 55.4516 72.0707
C 150.147 53.0698 73.364
C 148.804 52.0134 75.8486
C 147.109 53.1439 78.2145
C 144.531 54.776 78.6198
C 141.807 55.4286 77.3728
C 140.297 56.4934 74.8918
C 139.38 58.372 72.6069
C 137.149 60.2491 71.5701
C 134.114 60.0081 71.1625
C 131.697 58.5414 69.8799
C 130.73 56.4429 67.7716
C 130.983 55.389 64.8764
C 129.891 54.02 62.3525
C 128.283 51.9168 60.742
C 127.325 49.1155 59.7678
C 127.334 45.9559 60.1618
C 127.452 43.0567 61.083
C 125.132 41.3826 62.1367
C 122.978 39.3534 61.4227
C 121.821 38.5945 58.638
C 122.784 37.3048 56.0076
C 124.479 34.8686 55.0733
C 125.033 31.8388 54.6458
C 123.875 28.9708 55.1019
C 122.44 27.523 57.4004
C 122.289 27.0476 60.4145
C 124.303 26.4806 62.6492
C 127.031 25.3203 63.1557
C 128.649 22.8065 62.5183
C 128.154 19.7345 62.2204
C 127.146 17.2993 63.8732
C 126.887 16.4 66.8042
C 128.765 15.8708 69.2451
C 131.121 13.9979 69.4895
C 133.81 13.2854 68.0845
C 135.998 14.8214 66.6251
C 137.508 17.4956 66.9194
C 138.383 19.346 69.0949
C 139.404 19.4133 71.9331
C 140.095 18.0899 74.5539
N 161.688 96.6475 43.8918
N 162.5 93.0909 44.1727
N 162.668 86.8093 41.9207
N 162.745 85.9193 37.7004
N 161.31 89.0803 33.023
N 158.776 93.0131 32.5117
N 154.546 94.7249 36.8227
N 150.764 92.729 37.0932
N 148.463 89.0506 33.6348
N 150.77 83.9317 33.426
N 152.56 81.4583 36.5003
N 153.872 81.8071 41.4734
N 152.813 85.2743 45.048
N 147.804 87.3432 45.5493
N 143.525 84.7896 45.669
N 142.371 79.674 46.4015
N 145.567 76.1659 48.2962
N 149.081 75.9105 51.4545
N 151.67 79.7136 54.491
N 150.158 84.3485 54.8355
N 144.721 85.5902 56.2664
N 142.275 84.0268 59.6986
N 143.39 79.7023 62.6368
N 142.414 74.8382 60.6698
N 139.811 74.1109 56.1031
N 134.933 77.3444 55.3735
N 131.691 77.4463 58.9291
N 130.231 74.3307 62.5378
N 133.966 70.3245 64.5937
N 136.145 67.425 62.8778
N 135.857 64.1294 57.7618
N 134.149 62.7324 57.1607
N 127.893 62.9464 57.0993
N 125.531 66.9054 55.3442
N 127.544 70.7848 51.4855
N 133.198 69.6071 49.7282
N 134.309 64.7785 48.1378
N 132.765 62.761 44.9761
N 130.697 63.235 41.4962
N 129.375 68.8005 38.2539
N 131.849 72.1225 38.0969
N 137.961 70.255 41.0812
N 140.463 71.2377 40.3423
N 140.585 75.8534 35.3064
N 141.902 74.2237 31.2023
N 143.475 68.8629 30.2948
N 146.92 66.2692 32.0265
N 148.931 65.7402 35.7574
N 149.015 67.0601 38.7577
N 149.8 69.3981 42.2347
N 152.42 69.7027 45.0633
N 155.22 69.5935 46.7111
N 158.513 68.1336 46.6089
N 161.086 64.8619 42.9442
N 163.325 64.1392 44.0249
N 168.246 66.1226 44.9771
N 171.352 69.3417 42.4642
N 170.415 72.4075 38.6153
N 167.97 70.9123 33.9614
N 167.438 67.3085 31.8926
N 173.479 63.7202 33.3686
N 175.667 63.9807 30.5922
N 173.741 63.8503 24.3713
N 172.605 61.0849 22.8478
N 172.708 55.4555 26.0476
N 168.277 54.2514 26.9633
N 164.456 55.2812 22.7167
N 165.388 52.5213 18.7359
N 166.312 47.5525 19.2413
N 163.816 44.6966 23.5006
N 158.298 47.1485 23.8553
N 156.216 46.0895 18.9318
N 155.983 41.0717 17.652
N 154.733 37.2031 20.969
N 153.089 37.5399 26.4081
N 150.579 40.7078 28.8825
N 150.007 44.026 28.9806
N 148.534 46.4476 28.1343
N 146.622 49.3953 27.3324
N 148.189 54.2238 28.032
N 149.207 55.9989 28.0152
N 153.347 57.1081 21.9126
N 155.691 60.3896 22.7862
N 155.67 63.0958 28.1411
N 156.046 60.2007 32.1499
N 158.418 58.7319 33.8417
N 161.073 58.7603 35.3337
N 164.677 58.8134 37.2461
N 166.703 55.5097 38.5703
N 168.429 53.4719 39.337
N 173.446 52.5778 38.8549
N 176.186 51.2078 34.5924
N 175.531 47.377 31.8964
N 173.702 43.0753 32.2327
N 168.973 41.752 34.7093
N 166.856 42.4394 38.6848
N 167.671 44.124 41.3938
N 169.28 45.9115 45.0762
N 170.34 46.2547 48.2174
N 174.124 45.824 49.968
N 177.285 40.0049 50.1904
N 175.588 36.7574 51.8774
N 168.369 39.0978 54.0074
N 166.772 37.4334 53.1207
N 165.044 34.1378 51.0656
N 163.458 32.846 47.3028
N 162.702 33.1217 44.0302
N 162.416 33.82 41.026