LAMMPS data file via write_data, version 30 Jul 2016, timestep = 4200000

459 atoms
4 atom types
82 bonds
1 bond types
41 angles
1 angle types

-5.0000000000000000e+01 5.0000000000000000e+01 xlo xhi
-5.0000000000000000e+01 5.0000000000000000e+01 ylo yhi
-7.0899900000000005e-01 2.4815000999999999e+01 zlo zhi

Masses

1 12.0107
2 12.0107
3 15.9994
4 1.008

Atoms # full

37 1 2 0.0000000000000000e+00 -3.4192119999999999e+00 -4.2875560000000004e+00 0.0000000000000000e+00 0 0 0
41 1 2 0.0000000000000000e+00 -1.2203020000000000e+00 -5.3464939999999999e+00 0.0000000000000000e+00 0 0 0
34 1 1 0.0000000000000000e+00 -4.2875560000000004e+00 -3.4192119999999999e+00 7.0899999999999996e-01 0 0 0
38 1 1 0.0000000000000000e+00 -2.3794140000000001e+00 -4.9409039999999997e+00 7.0899999999999996e-01 0 0 0
35 1 2 0.0000000000000000e+00 -4.2875560000000004e+00 -3.4192119999999999e+00 2.1269999999999998e+00 0 0 0
39 1 2 0.0000000000000000e+00 -2.3794140000000001e+00 -4.9409039999999997e+00 2.1269999999999998e+00 0 0 0
30 1 1 0.0000000000000000e+00 -5.3464939999999999e+00 -1.2203020000000000e+00 7.0899999999999996e-01 0 0 0
31 1 2 0.0000000000000000e+00 -5.3464939999999999e+00 -1.2203020000000000e+00 2.1269999999999998e+00 0 0 0
27 1 2 0.0000000000000000e+00 -5.3464939999999999e+00 1.2203020000000000e+00 2.1269999999999998e+00 0 0 0
29 1 2 0.0000000000000000e+00 -5.4839900000000004e+00 0.0000000000000000e+00 0.0000000000000000e+00 0 0 0
26 1 1 0.0000000000000000e+00 -5.3464939999999999e+00 1.2203020000000000e+00 7.0899999999999996e-01 0 0 0
33 1 2 0.0000000000000000e+00 -4.9409039999999997e+00 -2.3794140000000001e+00 0.0000000000000000e+00 0 0 0
25 1 2 0.0000000000000000e+00 -4.9409039999999997e+00 2.3794140000000001e+00 0.0000000000000000e+00 0 0 0
394 21 3 -8.3399999999999996e-01 -2.0110200308062591e+00 7.9887814578321359e-01 -5.6732551688635124e-01 0 0 -14
382 17 3 -8.3399999999999996e-01 -1.6943762764218335e+00 -5.6679804737810935e-01 1.7309873575271351e+00 0 0 -15
415 28 3 -8.3399999999999996e-01 -4.0270018574224642e-01 2.3549939130519175e+00 1.2754264490197240e+00 0 0 -9
454 41 3 -8.3399999999999996e-01 -2.2862168024372978e-01 -1.9532995735279870e+00 -1.2119310482552183e-01 0 0 -3
416 28 4 4.1699999999999998e-01 -8.5277393463863016e-01 1.7710627278612201e+00 6.6494255714845019e-01 0 0 -9
384 17 4 4.1699999999999998e-01 -1.0640044850685304e+00 -1.0607912411112979e+00 1.2067412380310523e+00 0 0 -15
383 17 4 4.1699999999999998e-01 -2.0781247354376720e+00 5.9688228278101836e-02 1.1174045072405576e+00 0 0 -15
19 1 2 0.0000000000000000e+00 -2.3794140000000001e+00 4.9409039999999997e+00 2.1269999999999998e+00 0 0 0
21 1 2 0.0000000000000000e+00 -3.4192119999999999e+00 4.2875560000000004e+00 0.0000000000000000e+00 0 0 0
17 1 2 0.0000000000000000e+00 -1.2203020000000000e+00 5.3464939999999999e+00 0.0000000000000000e+00 0 0 0
18 1 1 0.0000000000000000e+00 -2.3794140000000001e+00 4.9409039999999997e+00 7.0899999999999996e-01 0 0 0
22 1 1 0.0000000000000000e+00 -4.2875560000000004e+00 3.4192119999999999e+00 7.0899999999999996e-01 0 0 0
23 1 2 0.0000000000000000e+00 -4.2875560000000004e+00 3.4192119999999999e+00 2.1269999999999998e+00 0 0 0
36 1 1 0.0000000000000000e+00 -3.4192119999999999e+00 -4.2875560000000004e+00 2.8359999999999999e+00 0 0 0
40 1 1 0.0000000000000000e+00 -1.2203020000000000e+00 -5.3464939999999999e+00 2.8359999999999999e+00 0 0 0
93 1 2 0.0000000000000000e+00 -3.4192119999999999e+00 -4.2875560000000004e+00 4.2539999999999996e+00 0 0 0
97 1 2 0.0000000000000000e+00 -1.2203020000000000e+00 -5.3464939999999999e+00 4.2539999999999996e+00 0 0 0
90 1 1 0.0000000000000000e+00 -4.2875560000000004e+00 -3.4192119999999999e+00 4.9630000000000001e+00 0 0 0
94 1 1 0.0000000000000000e+00 -2.3794140000000001e+00 -4.9409039999999997e+00 4.9630000000000001e+00 0 0 0
86 1 1 0.0000000000000000e+00 -5.3464939999999999e+00 -1.2203020000000000e+00 4.9630000000000001e+00 0 0 0
28 1 1 0.0000000000000000e+00 -5.4839900000000004e+00 0.0000000000000000e+00 2.8359999999999999e+00 0 0 0
85 1 2 0.0000000000000000e+00 -5.4839900000000004e+00 0.0000000000000000e+00 4.2539999999999996e+00 0 0 0
82 1 1 0.0000000000000000e+00 -5.3464939999999999e+00 1.2203020000000000e+00 4.9630000000000001e+00 0 0 0
409 26 3 -8.3399999999999996e-01 -1.3005202261335831e+00 1.8112266066128715e+00 3.7485670141635259e+00 0 0 -5
32 1 1 0.0000000000000000e+00 -4.9409039999999997e+00 -2.3794140000000001e+00 2.8359999999999999e+00 0 0 0
89 1 2 0.0000000000000000e+00 -4.9409039999999997e+00 -2.3794140000000001e+00 4.2539999999999996e+00 0 0 0
24 1 1 0.0000000000000000e+00 -4.9409039999999997e+00 2.3794140000000001e+00 2.8359999999999999e+00 0 0 0
81 1 2 0.0000000000000000e+00 -4.9409039999999997e+00 2.3794140000000001e+00 4.2539999999999996e+00 0 0 0
410 26 4 4.1699999999999998e-01 -1.8182652893387965e+00 1.3175023098287302e+00 3.1126354546134483e+00 0 0 -5
452 40 4 4.1699999999999998e-01 -1.2514944612360115e+00 -1.2885420858933267e+00 3.3137712795162466e+00 0 0 -6
451 40 3 -8.3399999999999996e-01 -6.5186046059301572e-01 -1.4887936054351656e+00 4.0324994823315752e+00 0 0 -6
441 36 4 4.1699999999999998e-01 -1.8722592319370379e+00 9.1952092290068521e-01 5.3244129732668801e+00 0 0 -6
458 42 4 4.1699999999999998e-01 -1.9994513188247467e-01 2.1507079211934528e+00 5.2394547622701433e+00 0 0 -7
374 14 4 4.1699999999999998e-01 -5.8258959858921910e-01 -1.9465158923798431e+00 5.6217888247812713e+00 0 0 -25
16 1 1 0.0000000000000000e+00 -1.2203020000000000e+00 5.3464939999999999e+00 2.8359999999999999e+00 0 0 0
411 26 4 4.1699999999999998e-01 -8.5369311750857890e-01 2.4786318489834542e+00 3.2278478359654117e+00 0 0 -5
78 1 1 0.0000000000000000e+00 -4.2875560000000004e+00 3.4192119999999999e+00 4.9630000000000001e+00 0 0 0
73 1 2 0.0000000000000000e+00 -1.2203020000000000e+00 5.3464939999999999e+00 4.2539999999999996e+00 0 0 0
77 1 2 0.0000000000000000e+00 -3.4192119999999999e+00 4.2875560000000004e+00 4.2539999999999996e+00 0 0 0
20 1 1 0.0000000000000000e+00 -3.4192119999999999e+00 4.2875560000000004e+00 2.8359999999999999e+00 0 0 0
74 1 1 0.0000000000000000e+00 -2.3794140000000001e+00 4.9409039999999997e+00 4.9630000000000001e+00 0 0 0
92 1 1 0.0000000000000000e+00 -3.4192119999999999e+00 -4.2875560000000004e+00 7.0899999999999999e+00 0 0 0
153 1 2 0.0000000000000000e+00 -1.2203020000000000e+00 -5.3464939999999999e+00 8.5079999999999991e+00 0 0 0
95 1 2 0.0000000000000000e+00 -2.3794140000000001e+00 -4.9409039999999997e+00 6.3810000000000002e+00 0 0 0
149 1 2 0.0000000000000000e+00 -3.4192119999999999e+00 -4.2875560000000004e+00 8.5079999999999991e+00 0 0 0
91 1 2 0.0000000000000000e+00 -4.2875560000000004e+00 -3.4192119999999999e+00 6.3810000000000002e+00 0 0 0
96 1 1 0.0000000000000000e+00 -1.2203020000000000e+00 -5.3464939999999999e+00 7.0899999999999999e+00 0 0 0
375 14 4 4.1699999999999998e-01 -1.4459222705648846e+00 -2.4839657729722471e+00 6.7432608212556246e+00 0 0 -25
87 1 2 0.0000000000000000e+00 -5.3464939999999999e+00 -1.2203020000000000e+00 6.3810000000000002e+00 0 0 0
84 1 1 0.0000000000000000e+00 -5.4839900000000004e+00 0.0000000000000000e+00 7.0899999999999999e+00 0 0 0
83 1 2 0.0000000000000000e+00 -5.3464939999999999e+00 1.2203020000000000e+00 6.3810000000000002e+00 0 0 0
141 1 2 0.0000000000000000e+00 -5.4839900000000004e+00 0.0000000000000000e+00 8.5079999999999991e+00 0 0 0
440 36 4 4.1699999999999998e-01 -1.1157443104309204e+00 -1.4811173792394070e-01 6.0858201716942668e+00 0 0 -6
445 38 3 -8.3399999999999996e-01 -1.6231272709840963e+00 -8.6212839864535684e-01 8.7211461477330641e+00 0 0 -4
145 1 2 0.0000000000000000e+00 -4.9409039999999997e+00 -2.3794140000000001e+00 8.5079999999999991e+00 0 0 0
88 1 1 0.0000000000000000e+00 -4.9409039999999997e+00 -2.3794140000000001e+00 7.0899999999999999e+00 0 0 0
80 1 1 0.0000000000000000e+00 -4.9409039999999997e+00 2.3794140000000001e+00 7.0899999999999999e+00 0 0 0
137 1 2 0.0000000000000000e+00 -4.9409039999999997e+00 2.3794140000000001e+00 8.5079999999999991e+00 0 0 0
373 14 3 -8.3399999999999996e-01 -5.6880464891625715e-01 -2.1488552570121979e+00 6.5572569404052770e+00 0 0 -25
439 36 3 -8.3399999999999996e-01 -1.8352133122388434e+00 4.7725409621076242e-01 6.1725051628942786e+00 0 0 -6
392 20 4 4.1699999999999998e-01 -1.7412811765048273e+00 1.6754352209059997e+00 7.8520343128215870e+00 0 0 -15
391 20 3 -8.3399999999999996e-01 -9.6142233069490279e-01 2.1854437319960023e+00 8.0709951286983337e+00 0 0 -15
447 38 4 4.1699999999999998e-01 -1.9057327632688270e+00 -7.1884654932927516e-01 7.8179094021916304e+00 0 0 -4
446 38 4 4.1699999999999998e-01 -7.1230604422025201e-01 -1.1465501734522248e+00 8.6453739447486928e+00 0 0 -4
129 1 2 0.0000000000000000e+00 -1.2203020000000000e+00 5.3464939999999999e+00 8.5079999999999991e+00 0 0 0
133 1 2 0.0000000000000000e+00 -3.4192119999999999e+00 4.2875560000000004e+00 8.5079999999999991e+00 0 0 0
79 1 2 0.0000000000000000e+00 -4.2875560000000004e+00 3.4192119999999999e+00 6.3810000000000002e+00 0 0 0
72 1 1 0.0000000000000000e+00 -1.2203020000000000e+00 5.3464939999999999e+00 7.0899999999999999e+00 0 0 0
75 1 2 0.0000000000000000e+00 -2.3794140000000001e+00 4.9409039999999997e+00 6.3810000000000002e+00 0 0 0
76 1 1 0.0000000000000000e+00 -3.4192119999999999e+00 4.2875560000000004e+00 7.0899999999999999e+00 0 0 0
393 20 4 4.1699999999999998e-01 -6.5583428207953220e-01 2.5290135813289827e+00 7.2314666914834325e+00 0 0 -15
152 1 1 0.0000000000000000e+00 -1.2203020000000000e+00 -5.3464939999999999e+00 1.1343999999999999e+01 0 0 0
151 1 2 0.0000000000000000e+00 -2.3794140000000001e+00 -4.9409039999999997e+00 1.0635000000000000e+01 0 0 0
147 1 2 0.0000000000000000e+00 -4.2875560000000004e+00 -3.4192119999999999e+00 1.0635000000000000e+01 0 0 0
146 1 1 0.0000000000000000e+00 -4.2875560000000004e+00 -3.4192119999999999e+00 9.2170000000000005e+00 0 0 0
148 1 1 0.0000000000000000e+00 -3.4192119999999999e+00 -4.2875560000000004e+00 1.1343999999999999e+01 0 0 0
150 1 1 0.0000000000000000e+00 -2.3794140000000001e+00 -4.9409039999999997e+00 9.2170000000000005e+00 0 0 0
142 1 1 0.0000000000000000e+00 -5.3464939999999999e+00 -1.2203020000000000e+00 9.2170000000000005e+00 0 0 0
143 1 2 0.0000000000000000e+00 -5.3464939999999999e+00 -1.2203020000000000e+00 1.0635000000000000e+01 0 0 0
140 1 1 0.0000000000000000e+00 -5.4839900000000004e+00 0.0000000000000000e+00 1.1343999999999999e+01 0 0 0
138 1 1 0.0000000000000000e+00 -5.3464939999999999e+00 1.2203020000000000e+00 9.2170000000000005e+00 0 0 0
139 1 2 0.0000000000000000e+00 -5.3464939999999999e+00 1.2203020000000000e+00 1.0635000000000000e+01 0 0 0
144 1 1 0.0000000000000000e+00 -4.9409039999999997e+00 -2.3794140000000001e+00 1.1343999999999999e+01 0 0 0
136 1 1 0.0000000000000000e+00 -4.9409039999999997e+00 2.3794140000000001e+00 1.1343999999999999e+01 0 0 0
359 9 4 4.1699999999999998e-01 -7.9877769967131196e-01 -1.9314718400209476e+00 1.1588778143922593e+01 0 0 -23
370 13 3 -8.3399999999999996e-01 -1.5772753140981202e+00 1.1347162743057453e+00 1.0786640247149151e+01 0 0 -25
371 13 4 4.1699999999999998e-01 -1.7981093873161320e+00 3.1879916315898232e-01 1.0337480478463700e+01 0 0 -25
372 13 4 4.1699999999999998e-01 -1.5140334437690344e+00 1.7844964650618260e+00 1.0086626847852379e+01 0 0 -25
360 9 4 4.1699999999999998e-01 -2.2768077589983480e+00 -2.2008434336631066e+00 1.1402333815043354e+01 0 0 -23
358 9 3 -8.3399999999999996e-01 -1.6542504088703898e+00 -1.7659294435314483e+00 1.1985003655338947e+01 0 0 -23
134 1 1 0.0000000000000000e+00 -4.2875560000000004e+00 3.4192119999999999e+00 9.2170000000000005e+00 0 0 0
132 1 1 0.0000000000000000e+00 -3.4192119999999999e+00 4.2875560000000004e+00 1.1343999999999999e+01 0 0 0
131 1 2 0.0000000000000000e+00 -2.3794140000000001e+00 4.9409039999999997e+00 1.0635000000000000e+01 0 0 0
135 1 2 0.0000000000000000e+00 -4.2875560000000004e+00 3.4192119999999999e+00 1.0635000000000000e+01 0 0 0
128 1 1 0.0000000000000000e+00 -1.2203020000000000e+00 5.3464939999999999e+00 1.1343999999999999e+01 0 0 0
130 1 1 0.0000000000000000e+00 -2.3794140000000001e+00 4.9409039999999997e+00 9.2170000000000005e+00 0 0 0
205 1 2 0.0000000000000000e+00 -3.4192119999999999e+00 -4.2875560000000004e+00 1.2762000000000000e+01 0 0 0
209 1 2 0.0000000000000000e+00 -1.2203020000000000e+00 -5.3464939999999999e+00 1.2762000000000000e+01 0 0 0
202 1 1 0.0000000000000000e+00 -4.2875560000000004e+00 -3.4192119999999999e+00 1.3471000000000000e+01 0 0 0
206 1 1 0.0000000000000000e+00 -2.3794140000000001e+00 -4.9409039999999997e+00 1.3471000000000000e+01 0 0 0
203 1 2 0.0000000000000000e+00 -4.2875560000000004e+00 -3.4192119999999999e+00 1.4888999999999999e+01 0 0 0
207 1 2 0.0000000000000000e+00 -2.3794140000000001e+00 -4.9409039999999997e+00 1.4888999999999999e+01 0 0 0
198 1 1 0.0000000000000000e+00 -5.3464939999999999e+00 -1.2203020000000000e+00 1.3471000000000000e+01 0 0 0
199 1 2 0.0000000000000000e+00 -5.3464939999999999e+00 -1.2203020000000000e+00 1.4888999999999999e+01 0 0 0
194 1 1 0.0000000000000000e+00 -5.3464939999999999e+00 1.2203020000000000e+00 1.3471000000000000e+01 0 0 0
197 1 2 0.0000000000000000e+00 -5.4839900000000004e+00 0.0000000000000000e+00 1.2762000000000000e+01 0 0 0
195 1 2 0.0000000000000000e+00 -5.3464939999999999e+00 1.2203020000000000e+00 1.4888999999999999e+01 0 0 0
338 2 4 4.1699999999999998e-01 -3.0048887487193809e-01 2.1014777944999983e+00 1.4845390179223479e+01 0 0 -22
201 1 2 0.0000000000000000e+00 -4.9409039999999997e+00 -2.3794140000000001e+00 1.2762000000000000e+01 0 0 0
193 1 2 0.0000000000000000e+00 -4.9409039999999997e+00 2.3794140000000001e+00 1.2762000000000000e+01 0 0 0
376 15 3 -8.3399999999999996e-01 -7.0834252982596213e-02 -2.0984147456290483e+00 1.4226224002281217e+01 0 0 -24
385 18 3 -8.3399999999999996e-01 -2.4006884829014128e+00 5.9351464414972377e-01 1.3599879790263879e+01 0 0 -14
387 18 4 4.1699999999999998e-01 -2.1816387251756790e+00 -1.6647761075537743e-01 1.3060749297038576e+01 0 0 -14
386 18 4 4.1699999999999998e-01 -2.5819416544859575e+00 1.2906887168262040e+00 1.2969540243399321e+01 0 0 -14
377 15 4 4.1699999999999998e-01 -8.1817314176064293e-01 -1.8603813958166080e+00 1.3677537796957186e+01 0 0 -24
422 30 4 4.1699999999999998e-01 -5.0380156777744389e-01 1.4904879491084444e+00 1.2302224850878369e+01 0 0 -11
339 2 4 4.1699999999999998e-01 -1.7412311593143333e+00 1.6407039849143850e+00 1.4907392301434887e+01 0 0 -22
187 1 2 0.0000000000000000e+00 -2.3794140000000001e+00 4.9409039999999997e+00 1.4888999999999999e+01 0 0 0
189 1 2 0.0000000000000000e+00 -3.4192119999999999e+00 4.2875560000000004e+00 1.2762000000000000e+01 0 0 0
190 1 1 0.0000000000000000e+00 -4.2875560000000004e+00 3.4192119999999999e+00 1.3471000000000000e+01 0 0 0
191 1 2 0.0000000000000000e+00 -4.2875560000000004e+00 3.4192119999999999e+00 1.4888999999999999e+01 0 0 0
185 1 2 0.0000000000000000e+00 -1.2203020000000000e+00 5.3464939999999999e+00 1.2762000000000000e+01 0 0 0
186 1 1 0.0000000000000000e+00 -2.3794140000000001e+00 4.9409039999999997e+00 1.3471000000000000e+01 0 0 0
204 1 1 0.0000000000000000e+00 -3.4192119999999999e+00 -4.2875560000000004e+00 1.5598000000000001e+01 0 0 0
208 1 1 0.0000000000000000e+00 -1.2203020000000000e+00 -5.3464939999999999e+00 1.5598000000000001e+01 0 0 0
261 1 2 0.0000000000000000e+00 -3.4192119999999999e+00 -4.2875560000000004e+00 1.7016000999999999e+01 0 0 0
265 1 2 0.0000000000000000e+00 -1.2203020000000000e+00 -5.3464939999999999e+00 1.7016000999999999e+01 0 0 0
258 1 1 0.0000000000000000e+00 -4.2875560000000004e+00 -3.4192119999999999e+00 1.7725000000000001e+01 0 0 0
262 1 1 0.0000000000000000e+00 -2.3794140000000001e+00 -4.9409039999999997e+00 1.7725000000000001e+01 0 0 0
254 1 1 0.0000000000000000e+00 -5.3464939999999999e+00 -1.2203020000000000e+00 1.7725000000000001e+01 0 0 0
250 1 1 0.0000000000000000e+00 -5.3464939999999999e+00 1.2203020000000000e+00 1.7725000000000001e+01 0 0 0
196 1 1 0.0000000000000000e+00 -5.4839900000000004e+00 0.0000000000000000e+00 1.5598000000000001e+01 0 0 0
253 1 2 0.0000000000000000e+00 -5.4839900000000004e+00 0.0000000000000000e+00 1.7016000999999999e+01 0 0 0
200 1 1 0.0000000000000000e+00 -4.9409039999999997e+00 -2.3794140000000001e+00 1.5598000000000001e+01 0 0 0
257 1 2 0.0000000000000000e+00 -4.9409039999999997e+00 -2.3794140000000001e+00 1.7016000999999999e+01 0 0 0
192 1 1 0.0000000000000000e+00 -4.9409039999999997e+00 2.3794140000000001e+00 1.5598000000000001e+01 0 0 0
249 1 2 0.0000000000000000e+00 -4.9409039999999997e+00 2.3794140000000001e+00 1.7016000999999999e+01 0 0 0
431 33 4 4.1699999999999998e-01 -1.3272465413774175e+00 -1.1853829392456194e+00 1.5703201100091208e+01 0 0 -12
413 27 4 4.1699999999999998e-01 -1.5555735208584396e+00 -1.8632503714207538e+00 1.7894638495511781e+01 0 0 -10
430 33 3 -8.3399999999999996e-01 -2.0928709755033181e+00 -8.8300854786640048e-01 1.6191689885817052e+01 0 0 -12
368 12 4 4.1699999999999998e-01 -2.0036417203054802e+00 1.7794136245953505e+00 1.7542206952329256e+01 0 0 -24
369 12 4 4.1699999999999998e-01 -2.4108875957293927e+00 3.3811521435806607e-01 1.7762898759888365e+01 0 0 -24
367 12 3 -8.3399999999999996e-01 -2.2581957123208021e+00 1.1611405931343943e+00 1.8227169160877700e+01 0 0 -24
432 33 4 4.1699999999999998e-01 -2.5605889111330931e+00 -3.1640429055874725e-01 1.5578149454974334e+01 0 0 -12
414 27 4 4.1699999999999998e-01 -9.5278102792597297e-02 -2.2622383147207343e+00 1.7910166554798344e+01 0 0 -10
337 2 3 -8.3399999999999996e-01 -1.0272247012196043e+00 1.9687217400237433e+00 1.5454046644937735e+01 0 0 -22
246 1 1 0.0000000000000000e+00 -4.2875560000000004e+00 3.4192119999999999e+00 1.7725000000000001e+01 0 0 0
188 1 1 0.0000000000000000e+00 -3.4192119999999999e+00 4.2875560000000004e+00 1.5598000000000001e+01 0 0 0
241 1 2 0.0000000000000000e+00 -1.2203020000000000e+00 5.3464939999999999e+00 1.7016000999999999e+01 0 0 0
184 1 1 0.0000000000000000e+00 -1.2203020000000000e+00 5.3464939999999999e+00 1.5598000000000001e+01 0 0 0
242 1 1 0.0000000000000000e+00 -2.3794140000000001e+00 4.9409039999999997e+00 1.7725000000000001e+01 0 0 0
245 1 2 0.0000000000000000e+00 -3.4192119999999999e+00 4.2875560000000004e+00 1.7016000999999999e+01 0 0 0
260 1 1 0.0000000000000000e+00 -3.4192119999999999e+00 -4.2875560000000004e+00 1.9851998999999999e+01 0 0 0
259 1 2 0.0000000000000000e+00 -4.2875560000000004e+00 -3.4192119999999999e+00 1.9143000000000001e+01 0 0 0
317 1 2 0.0000000000000000e+00 -3.4192119999999999e+00 -4.2875560000000004e+00 2.1270000000000000e+01 0 0 0
264 1 1 0.0000000000000000e+00 -1.2203020000000000e+00 -5.3464939999999999e+00 1.9851998999999999e+01 0 0 0
263 1 2 0.0000000000000000e+00 -2.3794140000000001e+00 -4.9409039999999997e+00 1.9143000000000001e+01 0 0 0
321 1 2 0.0000000000000000e+00 -1.2203020000000000e+00 -5.3464939999999999e+00 2.1270000000000000e+01 0 0 0
255 1 2 0.0000000000000000e+00 -5.3464939999999999e+00 -1.2203020000000000e+00 1.9143000000000001e+01 0 0 0
309 1 2 0.0000000000000000e+00 -5.4839900000000004e+00 0.0000000000000000e+00 2.1270000000000000e+01 0 0 0
252 1 1 0.0000000000000000e+00 -5.4839900000000004e+00 0.0000000000000000e+00 1.9851998999999999e+01 0 0 0
251 1 2 0.0000000000000000e+00 -5.3464939999999999e+00 1.2203020000000000e+00 1.9143000000000001e+01 0 0 0
313 1 2 0.0000000000000000e+00 -4.9409039999999997e+00 -2.3794140000000001e+00 2.1270000000000000e+01 0 0 0
256 1 1 0.0000000000000000e+00 -4.9409039999999997e+00 -2.3794140000000001e+00 1.9851998999999999e+01 0 0 0
248 1 1 0.0000000000000000e+00 -4.9409039999999997e+00 2.3794140000000001e+00 1.9851998999999999e+01 0 0 0
305 1 2 0.0000000000000000e+00 -4.9409039999999997e+00 2.3794140000000001e+00 2.1270000000000000e+01 0 0 0
464 44 4 4.1699999999999998e-01 -2.7079892184983292e+00 3.9933626052373862e-02 2.0000845728581215e+01 0 0 0
465 44 4 4.1699999999999998e-01 -1.5943458943549607e+00 -9.8535229638693189e-01 1.9978877103824594e+01 0 0 0
412 27 3 -8.3399999999999996e-01 -8.2971781431799774e-01 -2.0556538694428581e+00 1.8488226806643052e+01 0 0 -10
399 22 4 4.1699999999999998e-01 -5.4205383713682542e-01 1.7741522293641281e+00 1.9183041432181597e+01 0 0 -14
463 44 3 -8.3399999999999996e-01 -2.2762883774811575e+00 -6.2046104484342768e-01 2.0542828675370416e+01 0 0 0
297 1 2 0.0000000000000000e+00 -1.2203020000000000e+00 5.3464939999999999e+00 2.1270000000000000e+01 0 0 0
301 1 2 0.0000000000000000e+00 -3.4192119999999999e+00 4.2875560000000004e+00 2.1270000000000000e+01 0 0 0
244 1 1 0.0000000000000000e+00 -3.4192119999999999e+00 4.2875560000000004e+00 1.9851998999999999e+01 0 0 0
240 1 1 0.0000000000000000e+00 -1.2203020000000000e+00 5.3464939999999999e+00 1.9851998999999999e+01 0 0 0
247 1 2 0.0000000000000000e+00 -4.2875560000000004e+00 3.4192119999999999e+00 1.9143000000000001e+01 0 0 0
243 1 2 0.0000000000000000e+00 -2.3794140000000001e+00 4.9409039999999997e+00 1.9143000000000001e+01 0 0 0
315 1 2 0.0000000000000000e+00 -4.2875560000000004e+00 -3.4192119999999999e+00 2.3396999000000001e+01 0 0 0
314 1 1 0.0000000000000000e+00 -4.2875560000000004e+00 -3.4192119999999999e+00 2.1978999999999999e+01 0 0 0
319 1 2 0.0000000000000000e+00 -2.3794140000000001e+00 -4.9409039999999997e+00 2.3396999000000001e+01 0 0 0
316 1 1 0.0000000000000000e+00 -3.4192119999999999e+00 -4.2875560000000004e+00 2.4106000999999999e+01 0 0 0
318 1 1 0.0000000000000000e+00 -2.3794140000000001e+00 -4.9409039999999997e+00 2.1978999999999999e+01 0 0 0
320 1 1 0.0000000000000000e+00 -1.2203020000000000e+00 -5.3464939999999999e+00 2.4106000999999999e+01 0 0 0
455 41 4 4.1699999999999998e-01 -6.6922445490482318e-01 -2.4466802662983897e+00 2.4710942388796191e+01 0 0 -4
310 1 1 0.0000000000000000e+00 -5.3464939999999999e+00 -1.2203020000000000e+00 2.1978999999999999e+01 0 0 0
311 1 2 0.0000000000000000e+00 -5.3464939999999999e+00 -1.2203020000000000e+00 2.3396999000000001e+01 0 0 0
308 1 1 0.0000000000000000e+00 -5.4839900000000004e+00 0.0000000000000000e+00 2.4106000999999999e+01 0 0 0
306 1 1 0.0000000000000000e+00 -5.3464939999999999e+00 1.2203020000000000e+00 2.1978999999999999e+01 0 0 0
307 1 2 0.0000000000000000e+00 -5.3464939999999999e+00 1.2203020000000000e+00 2.3396999000000001e+01 0 0 0
312 1 1 0.0000000000000000e+00 -4.9409039999999997e+00 -2.3794140000000001e+00 2.4106000999999999e+01 0 0 0
304 1 1 0.0000000000000000e+00 -4.9409039999999997e+00 2.3794140000000001e+00 2.4106000999999999e+01 0 0 0
379 16 3 -8.3399999999999996e-01 -1.2856503741661154e+00 -1.9596208810692062e+00 2.2629244972230122e+01 0 0 -28
388 19 3 -8.3399999999999996e-01 -1.2771124428084555e+00 1.4481317265865281e+00 2.2416135364293662e+01 0 0 -16
389 19 4 4.1699999999999998e-01 -1.2335087216654399e+00 6.5078649021142132e-01 2.1888336209538430e+01 0 0 -16
381 16 4 4.1699999999999998e-01 -6.1358132374886298e-01 -2.3209572401657645e+00 2.2051325015425228e+01 0 0 -28
380 16 4 4.1699999999999998e-01 -1.9713029514317635e+00 -1.6514253838205795e+00 2.2036683979412071e+01 0 0 -28
395 21 4 4.1699999999999998e-01 -2.2199453724986360e+00 1.6085715576374724e+00 2.4490864509627986e+01 0 0 -15
341 3 4 4.1699999999999998e-01 -3.8971317691614930e-02 1.8089238967495618e+00 2.3825103446679790e+01 0 0 -17
390 19 4 4.1699999999999998e-01 -1.9039569487787533e+00 2.0064399300083999e+00 2.1956146136462479e+01 0 0 -16
396 21 4 4.1699999999999998e-01 -1.7965201696605375e+00 1.7271655216871032e-01 2.4265195008153814e+01 0 0 -15
300 1 1 0.0000000000000000e+00 -3.4192119999999999e+00 4.2875560000000004e+00 2.4106000999999999e+01 0 0 0
302 1 1 0.0000000000000000e+00 -4.2875560000000004e+00 3.4192119999999999e+00 2.1978999999999999e+01 0 0 0
296 1 1 0.0000000000000000e+00 -1.2203020000000000e+00 5.3464939999999999e+00 2.4106000999999999e+01 0 0 0
303 1 2 0.0000000000000000e+00 -4.2875560000000004e+00 3.4192119999999999e+00 2.3396999000000001e+01 0 0 0
298 1 1 0.0000000000000000e+00 -2.3794140000000001e+00 4.9409039999999997e+00 2.1978999999999999e+01 0 0 0
299 1 2 0.0000000000000000e+00 -2.3794140000000001e+00 4.9409039999999997e+00 2.3396999000000001e+01 0 0 0
45 1 2 0.0000000000000000e+00 1.2203020000000000e+00 -5.3464939999999999e+00 0.0000000000000000e+00 0 0 0
49 1 2 0.0000000000000000e+00 3.4192119999999999e+00 -4.2875560000000004e+00 0.0000000000000000e+00 0 0 0
42 1 1 0.0000000000000000e+00 0.0000000000000000e+00 -5.4839900000000004e+00 7.0899999999999996e-01 0 0 0
46 1 1 0.0000000000000000e+00 2.3794140000000001e+00 -4.9409039999999997e+00 7.0899999999999996e-01 0 0 0
50 1 1 0.0000000000000000e+00 4.2875560000000004e+00 -3.4192119999999999e+00 7.0899999999999996e-01 0 0 0
43 1 2 0.0000000000000000e+00 0.0000000000000000e+00 -5.4839900000000004e+00 2.1269999999999998e+00 0 0 0
47 1 2 0.0000000000000000e+00 2.3794140000000001e+00 -4.9409039999999997e+00 2.1269999999999998e+00 0 0 0
51 1 2 0.0000000000000000e+00 4.2875560000000004e+00 -3.4192119999999999e+00 2.1269999999999998e+00 0 0 0
53 1 2 0.0000000000000000e+00 4.9409039999999997e+00 -2.3794140000000001e+00 0.0000000000000000e+00 0 0 0
5 1 2 0.0000000000000000e+00 4.9409039999999997e+00 2.3794140000000001e+00 0.0000000000000000e+00 0 0 0
462 43 4 4.1699999999999998e-01 1.9910190822990352e+00 9.8606174836929417e-01 -1.3861280427228270e-01 0 0 -1
461 43 4 4.1699999999999998e-01 2.6059481586645514e+00 -3.8815839444869615e-01 -2.9759867797652018e-01 0 0 -1
460 43 3 -8.3399999999999996e-01 2.3646079851957160e+00 2.6133269200368509e-01 3.6281695303344724e-01 0 0 -1
401 23 4 4.1699999999999998e-01 1.1540791662144421e+00 -2.1738397658807136e+00 1.5771872629378931e+00 0 0 -13
402 23 4 4.1699999999999998e-01 1.7456321614199359e+00 -7.8548067969935720e-01 1.6972680245492644e+00 0 0 -13
350 6 4 4.1699999999999998e-01 2.2775280254844530e+00 1.0858321752371156e+00 2.2314225993889849e+00 0 0 -14
400 23 3 -8.3399999999999996e-01 1.6847079722376572e+00 -1.6244302307337046e+00 2.1540879047298063e+00 0 0 -13
456 41 4 4.1699999999999998e-01 5.0176814311201656e-01 -1.5202966488294340e+00 -5.6308791680612913e-01 0 0 -3
54 1 1 0.0000000000000000e+00 5.3464939999999999e+00 -1.2203020000000000e+00 7.0899999999999996e-01 0 0 0
55 1 2 0.0000000000000000e+00 5.3464939999999999e+00 -1.2203020000000000e+00 2.1269999999999998e+00 0 0 0
2 1 1 0.0000000000000000e+00 5.3464939999999999e+00 1.2203020000000000e+00 7.0899999999999996e-01 0 0 0
3 1 2 0.0000000000000000e+00 5.3464939999999999e+00 1.2203020000000000e+00 2.1269999999999998e+00 0 0 0
1 1 2 0.0000000000000000e+00 5.4839900000000004e+00 0.0000000000000000e+00 0.0000000000000000e+00 0 0 0
7 1 2 0.0000000000000000e+00 4.2875560000000004e+00 3.4192119999999999e+00 2.1269999999999998e+00 0 0 0
11 1 2 0.0000000000000000e+00 2.3794140000000001e+00 4.9409039999999997e+00 2.1269999999999998e+00 0 0 0
6 1 1 0.0000000000000000e+00 4.2875560000000004e+00 3.4192119999999999e+00 7.0899999999999996e-01 0 0 0
13 1 2 0.0000000000000000e+00 1.2203020000000000e+00 5.3464939999999999e+00 0.0000000000000000e+00 0 0 0
15 1 2 0.0000000000000000e+00 0.0000000000000000e+00 5.4839900000000004e+00 2.1269999999999998e+00 0 0 0
10 1 1 0.0000000000000000e+00 2.3794140000000001e+00 4.9409039999999997e+00 7.0899999999999996e-01 0 0 0
14 1 1 0.0000000000000000e+00 0.0000000000000000e+00 5.4839900000000004e+00 7.0899999999999996e-01 0 0 0
9 1 2 0.0000000000000000e+00 3.4192119999999999e+00 4.2875560000000004e+00 0.0000000000000000e+00 0 0 0
417 28 4 4.1699999999999998e-01 7.9429502384762540e-02 2.9628695162431891e+00 7.1482803172821352e-01 0 0 -9
44 1 1 0.0000000000000000e+00 1.2203020000000000e+00 -5.3464939999999999e+00 2.8359999999999999e+00 0 0 0
48 1 1 0.0000000000000000e+00 3.4192119999999999e+00 -4.2875560000000004e+00 2.8359999999999999e+00 0 0 0
101 1 2 0.0000000000000000e+00 1.2203020000000000e+00 -5.3464939999999999e+00 4.2539999999999996e+00 0 0 0
105 1 2 0.0000000000000000e+00 3.4192119999999999e+00 -4.2875560000000004e+00 4.2539999999999996e+00 0 0 0
98 1 1 0.0000000000000000e+00 0.0000000000000000e+00 -5.4839900000000004e+00 4.9630000000000001e+00 0 0 0
102 1 1 0.0000000000000000e+00 2.3794140000000001e+00 -4.9409039999999997e+00 4.9630000000000001e+00 0 0 0
106 1 1 0.0000000000000000e+00 4.2875560000000004e+00 -3.4192119999999999e+00 4.9630000000000001e+00 0 0 0
52 1 1 0.0000000000000000e+00 4.9409039999999997e+00 -2.3794140000000001e+00 2.8359999999999999e+00 0 0 0
109 1 2 0.0000000000000000e+00 4.9409039999999997e+00 -2.3794140000000001e+00 4.2539999999999996e+00 0 0 0
4 1 1 0.0000000000000000e+00 4.9409039999999997e+00 2.3794140000000001e+00 2.8359999999999999e+00 0 0 0
61 1 2 0.0000000000000000e+00 4.9409039999999997e+00 2.3794140000000001e+00 4.2539999999999996e+00 0 0 0
442 37 3 -8.3399999999999996e-01 2.2164615117604844e+00 -6.8515540797943875e-01 4.8527136362785015e+00 0 0 -6
443 37 4 4.1699999999999998e-01 2.1730710870159440e+00 -1.4268311864472201e+00 4.2491690083482831e+00 0 0 -6
351 6 4 4.1699999999999998e-01 9.3025306301616439e-01 1.6864722010610951e+00 2.5719765191606148e+00 0 0 -14
349 6 3 -8.3399999999999996e-01 1.7122294041286998e+00 1.3058923820669692e+00 2.9718574251097181e+00 0 0 -14
444 37 4 4.1699999999999998e-01 2.2372478561686364e+00 8.5282545594723438e-02 4.2850649070966780e+00 0 0 -6
459 42 4 4.1699999999999998e-01 1.2744208137071253e+00 1.8905135413611451e+00 5.0148681493242107e+00 0 0 -7
453 40 4 4.1699999999999998e-01 2.0200499360017049e-01 -1.5892969442285263e+00 3.6117326734837403e+00 0 0 -6
57 1 2 0.0000000000000000e+00 5.4839900000000004e+00 0.0000000000000000e+00 4.2539999999999996e+00 0 0 0
110 1 1 0.0000000000000000e+00 5.3464939999999999e+00 -1.2203020000000000e+00 4.9630000000000001e+00 0 0 0
58 1 1 0.0000000000000000e+00 5.3464939999999999e+00 1.2203020000000000e+00 4.9630000000000001e+00 0 0 0
56 1 1 0.0000000000000000e+00 5.4839900000000004e+00 0.0000000000000000e+00 2.8359999999999999e+00 0 0 0
62 1 1 0.0000000000000000e+00 4.2875560000000004e+00 3.4192119999999999e+00 4.9630000000000001e+00 0 0 0