LAMMPS data file via write_data, version 30 Jul 2016, timestep = 6010000

459 atoms
4 atom types
82 bonds
1 bond types
41 angles
1 angle types

-5.0000000000000000e+01 5.0000000000000000e+01 xlo xhi
-5.0000000000000000e+01 5.0000000000000000e+01 ylo yhi
-7.0899900000000005e-01 2.4815000999999999e+01 zlo zhi

Masses

1 12.0107
2 12.0107
3 15.9994
4 1.008

Atoms # full

37 1 2 0.0000000000000000e+00 -3.4192119999999999e+00 -4.2875560000000004e+00 0.0000000000000000e+00 0 0 0
41 1 2 0.0000000000000000e+00 -1.2203020000000000e+00 -5.3464939999999999e+00 0.0000000000000000e+00 0 0 0
34 1 1 0.0000000000000000e+00 -4.2875560000000004e+00 -3.4192119999999999e+00 7.0899999999999996e-01 0 0 0
38 1 1 0.0000000000000000e+00 -2.3794140000000001e+00 -4.9409039999999997e+00 7.0899999999999996e-01 0 0 0
35 1 2 0.0000000000000000e+00 -4.2875560000000004e+00 -3.4192119999999999e+00 2.1269999999999998e+00 0 0 0
39 1 2 0.0000000000000000e+00 -2.3794140000000001e+00 -4.9409039999999997e+00 2.1269999999999998e+00 0 0 0
30 1 1 0.0000000000000000e+00 -5.3464939999999999e+00 -1.2203020000000000e+00 7.0899999999999996e-01 0 0 0
31 1 2 0.0000000000000000e+00 -5.3464939999999999e+00 -1.2203020000000000e+00 2.1269999999999998e+00 0 0 0
33 1 2 0.0000000000000000e+00 -4.9409039999999997e+00 -2.3794140000000001e+00 0.0000000000000000e+00 0 0 0
405 24 4 4.1699999999999998e-01 -2.5126320614452453e+00 -1.5749667302968158e+00 2.4176430338635195e+00 0 0 -19
32 1 1 0.0000000000000000e+00 -4.9409039999999997e+00 -2.3794140000000001e+00 2.8359999999999999e+00 0 0 0
89 1 2 0.0000000000000000e+00 -4.9409039999999997e+00 -2.3794140000000001e+00 4.2539999999999996e+00 0 0 0
36 1 1 0.0000000000000000e+00 -3.4192119999999999e+00 -4.2875560000000004e+00 2.8359999999999999e+00 0 0 0
40 1 1 0.0000000000000000e+00 -1.2203020000000000e+00 -5.3464939999999999e+00 2.8359999999999999e+00 0 0 0
93 1 2 0.0000000000000000e+00 -3.4192119999999999e+00 -4.2875560000000004e+00 4.2539999999999996e+00 0 0 0
97 1 2 0.0000000000000000e+00 -1.2203020000000000e+00 -5.3464939999999999e+00 4.2539999999999996e+00 0 0 0
90 1 1 0.0000000000000000e+00 -4.2875560000000004e+00 -3.4192119999999999e+00 4.9630000000000001e+00 0 0 0
94 1 1 0.0000000000000000e+00 -2.3794140000000001e+00 -4.9409039999999997e+00 4.9630000000000001e+00 0 0 0
86 1 1 0.0000000000000000e+00 -5.3464939999999999e+00 -1.2203020000000000e+00 4.9630000000000001e+00 0 0 0
411 26 4 4.1699999999999998e-01 -1.2029410301114076e+00 -1.7031270395202720e+00 -2.4300212262428492e-01 0 0 -20
449 39 4 4.1699999999999998e-01 -2.2899582256795363e+00 -5.6068131710711622e-02 4.4182899946465088e+00 0 0 -23
448 39 3 -8.3399999999999996e-01 -2.3015324805055024e+00 -1.0131104538875686e+00 4.4052816721625385e+00 0 0 -23
403 24 3 -8.3399999999999996e-01 -2.1456113985061136e+00 -1.1586436135006815e+00 1.6377692638230739e+00 0 0 -19
404 24 4 4.1699999999999998e-01 -1.7226891422084698e+00 -3.6509575018001800e-01 1.9658713147564404e+00 0 0 -19
369 12 4 4.1699999999999998e-01 -4.4384812076259111e-01 -2.0572968306841659e+00 4.1779114577704162e+00 0 0 -39
402 23 4 4.1699999999999998e-01 -5.0378977199652863e-01 -2.0845792779502914e+00 1.6055226538379459e+00 0 0 -28
450 39 4 4.1699999999999998e-01 -2.4580619163024289e+00 -1.2636189334330634e+00 5.3157630423122750e+00 0 0 -23
92 1 1 0.0000000000000000e+00 -3.4192119999999999e+00 -4.2875560000000004e+00 7.0899999999999999e+00 0 0 0
153 1 2 0.0000000000000000e+00 -1.2203020000000000e+00 -5.3464939999999999e+00 8.5079999999999991e+00 0 0 0
95 1 2 0.0000000000000000e+00 -2.3794140000000001e+00 -4.9409039999999997e+00 6.3810000000000002e+00 0 0 0
149 1 2 0.0000000000000000e+00 -3.4192119999999999e+00 -4.2875560000000004e+00 8.5079999999999991e+00 0 0 0
91 1 2 0.0000000000000000e+00 -4.2875560000000004e+00 -3.4192119999999999e+00 6.3810000000000002e+00 0 0 0
96 1 1 0.0000000000000000e+00 -1.2203020000000000e+00 -5.3464939999999999e+00 7.0899999999999999e+00 0 0 0
143 1 2 0.0000000000000000e+00 -5.3464939999999999e+00 -1.2203020000000000e+00 1.0635000000000000e+01 0 0 0
87 1 2 0.0000000000000000e+00 -5.3464939999999999e+00 -1.2203020000000000e+00 6.3810000000000002e+00 0 0 0
146 1 1 0.0000000000000000e+00 -4.2875560000000004e+00 -3.4192119999999999e+00 9.2170000000000005e+00 0 0 0
148 1 1 0.0000000000000000e+00 -3.4192119999999999e+00 -4.2875560000000004e+00 1.1343999999999999e+01 0 0 0
145 1 2 0.0000000000000000e+00 -4.9409039999999997e+00 -2.3794140000000001e+00 8.5079999999999991e+00 0 0 0
88 1 1 0.0000000000000000e+00 -4.9409039999999997e+00 -2.3794140000000001e+00 7.0899999999999999e+00 0 0 0
144 1 1 0.0000000000000000e+00 -4.9409039999999997e+00 -2.3794140000000001e+00 1.1343999999999999e+01 0 0 0
150 1 1 0.0000000000000000e+00 -2.3794140000000001e+00 -4.9409039999999997e+00 9.2170000000000005e+00 0 0 0
142 1 1 0.0000000000000000e+00 -5.3464939999999999e+00 -1.2203020000000000e+00 9.2170000000000005e+00 0 0 0
152 1 1 0.0000000000000000e+00 -1.2203020000000000e+00 -5.3464939999999999e+00 1.1343999999999999e+01 0 0 0
151 1 2 0.0000000000000000e+00 -2.3794140000000001e+00 -4.9409039999999997e+00 1.0635000000000000e+01 0 0 0
147 1 2 0.0000000000000000e+00 -4.2875560000000004e+00 -3.4192119999999999e+00 1.0635000000000000e+01 0 0 0
432 33 4 4.1699999999999998e-01 -4.3473101523676100e-01 -1.7127508889248826e+00 7.1159283156031998e+00 0 0 -28
391 20 3 -8.3399999999999996e-01 -2.2203498675899245e+00 -6.8223316893488495e-01 1.0089558025057455e+01 0 0 -30
392 20 4 4.1699999999999998e-01 -2.3461667214457012e+00 -9.0710612232136956e-01 1.1011422518299749e+01 0 0 -30
416 28 4 4.1699999999999998e-01 -3.3978680110181664e-01 -1.8817123439401866e+00 1.0043886057411116e+01 0 0 -24
382 17 3 -8.3399999999999996e-01 -2.0392513607951872e+00 -1.0607466355164907e+00 7.4095619822232717e+00 0 0 -32
383 17 4 4.1699999999999998e-01 -2.2537109831832143e+00 -1.1376197196392290e+00 8.3392551975093934e+00 0 0 -32
384 17 4 4.1699999999999998e-01 -1.8052705990404214e+00 -1.3998565684143316e-01 7.2925829978675445e+00 0 0 -32
205 1 2 0.0000000000000000e+00 -3.4192119999999999e+00 -4.2875560000000004e+00 1.2762000000000000e+01 0 0 0
209 1 2 0.0000000000000000e+00 -1.2203020000000000e+00 -5.3464939999999999e+00 1.2762000000000000e+01 0 0 0
202 1 1 0.0000000000000000e+00 -4.2875560000000004e+00 -3.4192119999999999e+00 1.3471000000000000e+01 0 0 0
206 1 1 0.0000000000000000e+00 -2.3794140000000001e+00 -4.9409039999999997e+00 1.3471000000000000e+01 0 0 0
203 1 2 0.0000000000000000e+00 -4.2875560000000004e+00 -3.4192119999999999e+00 1.4888999999999999e+01 0 0 0
207 1 2 0.0000000000000000e+00 -2.3794140000000001e+00 -4.9409039999999997e+00 1.4888999999999999e+01 0 0 0
198 1 1 0.0000000000000000e+00 -5.3464939999999999e+00 -1.2203020000000000e+00 1.3471000000000000e+01 0 0 0
199 1 2 0.0000000000000000e+00 -5.3464939999999999e+00 -1.2203020000000000e+00 1.4888999999999999e+01 0 0 0
201 1 2 0.0000000000000000e+00 -4.9409039999999997e+00 -2.3794140000000001e+00 1.2762000000000000e+01 0 0 0
363 10 4 4.1699999999999998e-01 -6.9496620155195987e-01 -2.0563873017272791e+00 1.2715147094524323e+01 0 0 -42
200 1 1 0.0000000000000000e+00 -4.9409039999999997e+00 -2.3794140000000001e+00 1.5598000000000001e+01 0 0 0
257 1 2 0.0000000000000000e+00 -4.9409039999999997e+00 -2.3794140000000001e+00 1.7016000999999999e+01 0 0 0
204 1 1 0.0000000000000000e+00 -3.4192119999999999e+00 -4.2875560000000004e+00 1.5598000000000001e+01 0 0 0
208 1 1 0.0000000000000000e+00 -1.2203020000000000e+00 -5.3464939999999999e+00 1.5598000000000001e+01 0 0 0
261 1 2 0.0000000000000000e+00 -3.4192119999999999e+00 -4.2875560000000004e+00 1.7016000999999999e+01 0 0 0
265 1 2 0.0000000000000000e+00 -1.2203020000000000e+00 -5.3464939999999999e+00 1.7016000999999999e+01 0 0 0
258 1 1 0.0000000000000000e+00 -4.2875560000000004e+00 -3.4192119999999999e+00 1.7725000000000001e+01 0 0 0
262 1 1 0.0000000000000000e+00 -2.3794140000000001e+00 -4.9409039999999997e+00 1.7725000000000001e+01 0 0 0
254 1 1 0.0000000000000000e+00 -5.3464939999999999e+00 -1.2203020000000000e+00 1.7725000000000001e+01 0 0 0
444 37 4 4.1699999999999998e-01 -2.1686218252409737e+00 -1.1937442143526120e+00 1.6661991165511296e+01 0 0 -23
337 2 3 -8.3399999999999996e-01 -2.3173551944389685e+00 -8.0871626586676415e-01 1.2897381222772450e+01 0 0 -38
338 2 4 4.1699999999999998e-01 -2.1585425241379821e+00 -8.3115594709325280e-01 1.3841048471220196e+01 0 0 -38
442 37 3 -8.3399999999999996e-01 -1.8302638343920368e+00 -9.5374479549741720e-01 1.5799351710941005e+01 0 0 -23
345 4 4 4.1699999999999998e-01 -1.4950766966407161e-01 -1.7411510275247313e+00 1.5632800259974726e+01 0 0 -33
443 37 4 4.1699999999999998e-01 -1.5540282407618022e+00 -4.2273844164867617e-02 1.5894993168041539e+01 0 0 -23
260 1 1 0.0000000000000000e+00 -3.4192119999999999e+00 -4.2875560000000004e+00 1.9851998999999999e+01 0 0 0
259 1 2 0.0000000000000000e+00 -4.2875560000000004e+00 -3.4192119999999999e+00 1.9143000000000001e+01 0 0 0
317 1 2 0.0000000000000000e+00 -3.4192119999999999e+00 -4.2875560000000004e+00 2.1270000000000000e+01 0 0 0
264 1 1 0.0000000000000000e+00 -1.2203020000000000e+00 -5.3464939999999999e+00 1.9851998999999999e+01 0 0 0
263 1 2 0.0000000000000000e+00 -2.3794140000000001e+00 -4.9409039999999997e+00 1.9143000000000001e+01 0 0 0
321 1 2 0.0000000000000000e+00 -1.2203020000000000e+00 -5.3464939999999999e+00 2.1270000000000000e+01 0 0 0
255 1 2 0.0000000000000000e+00 -5.3464939999999999e+00 -1.2203020000000000e+00 1.9143000000000001e+01 0 0 0
313 1 2 0.0000000000000000e+00 -4.9409039999999997e+00 -2.3794140000000001e+00 2.1270000000000000e+01 0 0 0
256 1 1 0.0000000000000000e+00 -4.9409039999999997e+00 -2.3794140000000001e+00 1.9851998999999999e+01 0 0 0
310 1 1 0.0000000000000000e+00 -5.3464939999999999e+00 -1.2203020000000000e+00 2.1978999999999999e+01 0 0 0
311 1 2 0.0000000000000000e+00 -5.3464939999999999e+00 -1.2203020000000000e+00 2.3396999000000001e+01 0 0 0
312 1 1 0.0000000000000000e+00 -4.9409039999999997e+00 -2.3794140000000001e+00 2.4106000999999999e+01 0 0 0
315 1 2 0.0000000000000000e+00 -4.2875560000000004e+00 -3.4192119999999999e+00 2.3396999000000001e+01 0 0 0
314 1 1 0.0000000000000000e+00 -4.2875560000000004e+00 -3.4192119999999999e+00 2.1978999999999999e+01 0 0 0
319 1 2 0.0000000000000000e+00 -2.3794140000000001e+00 -4.9409039999999997e+00 2.3396999000000001e+01 0 0 0
316 1 1 0.0000000000000000e+00 -3.4192119999999999e+00 -4.2875560000000004e+00 2.4106000999999999e+01 0 0 0
318 1 1 0.0000000000000000e+00 -2.3794140000000001e+00 -4.9409039999999997e+00 2.1978999999999999e+01 0 0 0
320 1 1 0.0000000000000000e+00 -1.2203020000000000e+00 -5.3464939999999999e+00 2.4106000999999999e+01 0 0 0
455 41 4 4.1699999999999998e-01 -7.4612895092975484e-01 -1.4165178139982508e+00 1.8917171050376695e+01 0 0 -19
424 31 3 -8.3399999999999996e-01 -1.5874922545717343e+00 -9.6109874961434616e-01 2.1544447727217172e+01 0 0 -27
426 31 4 4.1699999999999998e-01 -1.8584602860075330e+00 -1.2721828575942624e+00 2.2408180820424288e+01 0 0 -27
409 26 3 -8.3399999999999996e-01 -1.5545275132427951e+00 -1.4911809412943038e+00 2.4416302300550665e+01 0 0 -21
454 41 3 -8.3399999999999996e-01 -1.5953637047907150e+00 -9.9152262553275072e-01 1.8797121266827599e+01 0 0 -19
425 31 4 4.1699999999999998e-01 -1.5382507454675223e+00 -9.6207268510428452e-03 2.1636625306859738e+01 0 0 -27
456 41 4 4.1699999999999998e-01 -2.0854642587769359e+00 -1.2061385389390789e+00 1.9590830274032214e+01 0 0 -19
410 26 4 4.1699999999999998e-01 -2.0578628810745916e+00 -6.8840233239790771e-01 2.4552068803815349e+01 0 0 -21
458 42 4 4.1699999999999998e-01 -2.3694244223209976e-01 -1.8720060470154547e+00 2.0688003696915466e+01 0 0 -23
27 1 2 0.0000000000000000e+00 -5.3464939999999999e+00 1.2203020000000000e+00 2.1269999999999998e+00 0 0 0
29 1 2 0.0000000000000000e+00 -5.4839900000000004e+00 0.0000000000000000e+00 0.0000000000000000e+00 0 0 0
26 1 1 0.0000000000000000e+00 -5.3464939999999999e+00 1.2203020000000000e+00 7.0899999999999996e-01 0 0 0
25 1 2 0.0000000000000000e+00 -4.9409039999999997e+00 2.3794140000000001e+00 0.0000000000000000e+00 0 0 0
73 1 2 0.0000000000000000e+00 -1.2203020000000000e+00 5.3464939999999999e+00 4.2539999999999996e+00 0 0 0
77 1 2 0.0000000000000000e+00 -3.4192119999999999e+00 4.2875560000000004e+00 4.2539999999999996e+00 0 0 0
16 1 1 0.0000000000000000e+00 -1.2203020000000000e+00 5.3464939999999999e+00 2.8359999999999999e+00 0 0 0
74 1 1 0.0000000000000000e+00 -2.3794140000000001e+00 4.9409039999999997e+00 4.9630000000000001e+00 0 0 0
19 1 2 0.0000000000000000e+00 -2.3794140000000001e+00 4.9409039999999997e+00 2.1269999999999998e+00 0 0 0
21 1 2 0.0000000000000000e+00 -3.4192119999999999e+00 4.2875560000000004e+00 0.0000000000000000e+00 0 0 0
17 1 2 0.0000000000000000e+00 -1.2203020000000000e+00 5.3464939999999999e+00 0.0000000000000000e+00 0 0 0
18 1 1 0.0000000000000000e+00 -2.3794140000000001e+00 4.9409039999999997e+00 7.0899999999999996e-01 0 0 0
22 1 1 0.0000000000000000e+00 -4.2875560000000004e+00 3.4192119999999999e+00 7.0899999999999996e-01 0 0 0
23 1 2 0.0000000000000000e+00 -4.2875560000000004e+00 3.4192119999999999e+00 2.1269999999999998e+00 0 0 0
28 1 1 0.0000000000000000e+00 -5.4839900000000004e+00 0.0000000000000000e+00 2.8359999999999999e+00 0 0 0
85 1 2 0.0000000000000000e+00 -5.4839900000000004e+00 0.0000000000000000e+00 4.2539999999999996e+00 0 0 0
82 1 1 0.0000000000000000e+00 -5.3464939999999999e+00 1.2203020000000000e+00 4.9630000000000001e+00 0 0 0
20 1 1 0.0000000000000000e+00 -3.4192119999999999e+00 4.2875560000000004e+00 2.8359999999999999e+00 0 0 0
24 1 1 0.0000000000000000e+00 -4.9409039999999997e+00 2.3794140000000001e+00 2.8359999999999999e+00 0 0 0
81 1 2 0.0000000000000000e+00 -4.9409039999999997e+00 2.3794140000000001e+00 4.2539999999999996e+00 0 0 0
78 1 1 0.0000000000000000e+00 -4.2875560000000004e+00 3.4192119999999999e+00 4.9630000000000001e+00 0 0 0
439 36 3 -8.3399999999999996e-01 -1.9012768987708060e+00 1.4618703067492389e+00 4.6642524215948820e+00 0 0 -22
465 44 4 4.1699999999999998e-01 -2.1216124373374083e+00 1.6782870559987710e+00 -4.8705331897088547e-02 0 0 -17
445 38 3 -8.3399999999999996e-01 -1.7692565229506736e+00 1.5319466740889975e+00 1.8258172442935379e+00 0 0 -19
447 38 4 4.1699999999999998e-01 -9.4758107885252274e-01 1.9533963570873485e+00 2.0777342816362623e+00 0 0 -19
441 36 4 4.1699999999999998e-01 -9.5234309980376053e-01 1.4894309860433967e+00 4.7867168713864050e+00 0 0 -22
446 38 4 4.1699999999999998e-01 -2.3670067977630280e+00 1.7197338121394758e+00 2.5494627707890660e+00 0 0 -19
440 36 4 4.1699999999999998e-01 -2.2605987308787392e+00 1.6950005072799734e+00 5.5202725279352727e+00 0 0 -22
464 44 4 4.1699999999999998e-01 -7.1762617880421453e-01 1.4787494431946093e+00 -5.7870770943829086e-01 0 0 -17
84 1 1 0.0000000000000000e+00 -5.4839900000000004e+00 0.0000000000000000e+00 7.0899999999999999e+00 0 0 0
83 1 2 0.0000000000000000e+00 -5.3464939999999999e+00 1.2203020000000000e+00 6.3810000000000002e+00 0 0 0
141 1 2 0.0000000000000000e+00 -5.4839900000000004e+00 0.0000000000000000e+00 8.5079999999999991e+00 0 0 0
80 1 1 0.0000000000000000e+00 -4.9409039999999997e+00 2.3794140000000001e+00 7.0899999999999999e+00 0 0 0
137 1 2 0.0000000000000000e+00 -4.9409039999999997e+00 2.3794140000000001e+00 8.5079999999999991e+00 0 0 0
130 1 1 0.0000000000000000e+00 -2.3794140000000001e+00 4.9409039999999997e+00 9.2170000000000005e+00 0 0 0
132 1 1 0.0000000000000000e+00 -3.4192119999999999e+00 4.2875560000000004e+00 1.1343999999999999e+01 0 0 0
373 14 3 -8.3399999999999996e-01 -1.8662358724374353e+00 1.6977154217461112e+00 7.5904886826883384e+00 0 0 -42
129 1 2 0.0000000000000000e+00 -1.2203020000000000e+00 5.3464939999999999e+00 8.5079999999999991e+00 0 0 0
133 1 2 0.0000000000000000e+00 -3.4192119999999999e+00 4.2875560000000004e+00 8.5079999999999991e+00 0 0 0
79 1 2 0.0000000000000000e+00 -4.2875560000000004e+00 3.4192119999999999e+00 6.3810000000000002e+00 0 0 0
72 1 1 0.0000000000000000e+00 -1.2203020000000000e+00 5.3464939999999999e+00 7.0899999999999999e+00 0 0 0
75 1 2 0.0000000000000000e+00 -2.3794140000000001e+00 4.9409039999999997e+00 6.3810000000000002e+00 0 0 0
76 1 1 0.0000000000000000e+00 -3.4192119999999999e+00 4.2875560000000004e+00 7.0899999999999999e+00 0 0 0
128 1 1 0.0000000000000000e+00 -1.2203020000000000e+00 5.3464939999999999e+00 1.1343999999999999e+01 0 0 0
140 1 1 0.0000000000000000e+00 -5.4839900000000004e+00 0.0000000000000000e+00 1.1343999999999999e+01 0 0 0
138 1 1 0.0000000000000000e+00 -5.3464939999999999e+00 1.2203020000000000e+00 9.2170000000000005e+00 0 0 0
139 1 2 0.0000000000000000e+00 -5.3464939999999999e+00 1.2203020000000000e+00 1.0635000000000000e+01 0 0 0
136 1 1 0.0000000000000000e+00 -4.9409039999999997e+00 2.3794140000000001e+00 1.1343999999999999e+01 0 0 0
131 1 2 0.0000000000000000e+00 -2.3794140000000001e+00 4.9409039999999997e+00 1.0635000000000000e+01 0 0 0
135 1 2 0.0000000000000000e+00 -4.2875560000000004e+00 3.4192119999999999e+00 1.0635000000000000e+01 0 0 0
134 1 1 0.0000000000000000e+00 -4.2875560000000004e+00 3.4192119999999999e+00 9.2170000000000005e+00 0 0 0
451 40 3 -8.3399999999999996e-01 -1.5861010062631613e+00 1.7353512149778916e+00 1.0987170925093329e+01 0 0 -22
393 20 4 4.1699999999999998e-01 -1.9225508392031037e+00 2.2736547131345805e-01 1.0102896800682853e+01 0 0 -30
374 14 4 4.1699999999999998e-01 -2.0818218317272530e+00 1.8728850365114482e+00 8.5064966702742293e+00 0 0 -42
375 14 4 4.1699999999999998e-01 -9.3968274613538239e-01 1.9255593850672563e+00 7.5142069312677613e+00 0 0 -42
453 40 4 4.1699999999999998e-01 -7.2518580362443463e-01 1.9589075294578384e+00 1.1340836655500244e+01 0 0 -22
452 40 4 4.1699999999999998e-01 -2.1185610344367891e+00 2.5158881015045496e+00 1.1140403861745380e+01 0 0 -22
194 1 1 0.0000000000000000e+00 -5.3464939999999999e+00 1.2203020000000000e+00 1.3471000000000000e+01 0 0 0
197 1 2 0.0000000000000000e+00 -5.4839900000000004e+00 0.0000000000000000e+00 1.2762000000000000e+01 0 0 0
195 1 2 0.0000000000000000e+00 -5.3464939999999999e+00 1.2203020000000000e+00 1.4888999999999999e+01 0 0 0
245 1 2 0.0000000000000000e+00 -3.4192119999999999e+00 4.2875560000000004e+00 1.7016000999999999e+01 0 0 0
193 1 2 0.0000000000000000e+00 -4.9409039999999997e+00 2.3794140000000001e+00 1.2762000000000000e+01 0 0 0
241 1 2 0.0000000000000000e+00 -1.2203020000000000e+00 5.3464939999999999e+00 1.7016000999999999e+01 0 0 0
246 1 1 0.0000000000000000e+00 -4.2875560000000004e+00 3.4192119999999999e+00 1.7725000000000001e+01 0 0 0
242 1 1 0.0000000000000000e+00 -2.3794140000000001e+00 4.9409039999999997e+00 1.7725000000000001e+01 0 0 0
188 1 1 0.0000000000000000e+00 -3.4192119999999999e+00 4.2875560000000004e+00 1.5598000000000001e+01 0 0 0
187 1 2 0.0000000000000000e+00 -2.3794140000000001e+00 4.9409039999999997e+00 1.4888999999999999e+01 0 0 0
189 1 2 0.0000000000000000e+00 -3.4192119999999999e+00 4.2875560000000004e+00 1.2762000000000000e+01 0 0 0
190 1 1 0.0000000000000000e+00 -4.2875560000000004e+00 3.4192119999999999e+00 1.3471000000000000e+01 0 0 0
191 1 2 0.0000000000000000e+00 -4.2875560000000004e+00 3.4192119999999999e+00 1.4888999999999999e+01 0 0 0
185 1 2 0.0000000000000000e+00 -1.2203020000000000e+00 5.3464939999999999e+00 1.2762000000000000e+01 0 0 0
186 1 1 0.0000000000000000e+00 -2.3794140000000001e+00 4.9409039999999997e+00 1.3471000000000000e+01 0 0 0
250 1 1 0.0000000000000000e+00 -5.3464939999999999e+00 1.2203020000000000e+00 1.7725000000000001e+01 0 0 0
196 1 1 0.0000000000000000e+00 -5.4839900000000004e+00 0.0000000000000000e+00 1.5598000000000001e+01 0 0 0
253 1 2 0.0000000000000000e+00 -5.4839900000000004e+00 0.0000000000000000e+00 1.7016000999999999e+01 0 0 0
192 1 1 0.0000000000000000e+00 -4.9409039999999997e+00 2.3794140000000001e+00 1.5598000000000001e+01 0 0 0
249 1 2 0.0000000000000000e+00 -4.9409039999999997e+00 2.3794140000000001e+00 1.7016000999999999e+01 0 0 0
184 1 1 0.0000000000000000e+00 -1.2203020000000000e+00 5.3464939999999999e+00 1.5598000000000001e+01 0 0 0
406 25 3 -8.3399999999999996e-01 -1.8880972319822984e+00 1.7681943720949018e+00 1.4157323765947657e+01 0 0 -21
379 16 3 -8.3399999999999996e-01 -1.0147874453025529e+00 1.8582459486406715e+00 1.6737468655096016e+01 0 0 -42
380 16 4 4.1699999999999998e-01 -1.1434452219558053e+00 2.0550391460941904e+00 1.7665343365307862e+01 0 0 -42
408 25 4 4.1699999999999998e-01 -1.8569866353229381e+00 2.0140047172483357e+00 1.5081900495804321e+01 0 0 -21
381 16 4 4.1699999999999998e-01 -6.4761298966117209e-02 1.8063771937538751e+00 1.6632626838413962e+01 0 0 -42
407 25 4 4.1699999999999998e-01 -1.0341181256751604e+00 1.3713622445375466e+00 1.3985637110127268e+01 0 0 -21
339 2 4 4.1699999999999998e-01 -2.5792471989527210e+00 9.4614479154126865e-02 1.2719508468249419e+01 0 0 -38
309 1 2 0.0000000000000000e+00 -5.4839900000000004e+00 0.0000000000000000e+00 2.1270000000000000e+01 0 0 0
252 1 1 0.0000000000000000e+00 -5.4839900000000004e+00 0.0000000000000000e+00 1.9851998999999999e+01 0 0 0
251 1 2 0.0000000000000000e+00 -5.3464939999999999e+00 1.2203020000000000e+00 1.9143000000000001e+01 0 0 0
248 1 1 0.0000000000000000e+00 -4.9409039999999997e+00 2.3794140000000001e+00 1.9851998999999999e+01 0 0 0
305 1 2 0.0000000000000000e+00 -4.9409039999999997e+00 2.3794140000000001e+00 2.1270000000000000e+01 0 0 0
296 1 1 0.0000000000000000e+00 -1.2203020000000000e+00 5.3464939999999999e+00 2.4106000999999999e+01 0 0 0
395 21 4 4.1699999999999998e-01 -1.6500526251201399e+00 7.6284339507912602e-01 1.9276769243576378e+01 0 0 -31
297 1 2 0.0000000000000000e+00 -1.2203020000000000e+00 5.3464939999999999e+00 2.1270000000000000e+01 0 0 0
301 1 2 0.0000000000000000e+00 -3.4192119999999999e+00 4.2875560000000004e+00 2.1270000000000000e+01 0 0 0
244 1 1 0.0000000000000000e+00 -3.4192119999999999e+00 4.2875560000000004e+00 1.9851998999999999e+01 0 0 0
240 1 1 0.0000000000000000e+00 -1.2203020000000000e+00 5.3464939999999999e+00 1.9851998999999999e+01 0 0 0
247 1 2 0.0000000000000000e+00 -4.2875560000000004e+00 3.4192119999999999e+00 1.9143000000000001e+01 0 0 0
243 1 2 0.0000000000000000e+00 -2.3794140000000001e+00 4.9409039999999997e+00 1.9143000000000001e+01 0 0 0
308 1 1 0.0000000000000000e+00 -5.4839900000000004e+00 0.0000000000000000e+00 2.4106000999999999e+01 0 0 0
306 1 1 0.0000000000000000e+00 -5.3464939999999999e+00 1.2203020000000000e+00 2.1978999999999999e+01 0 0 0
307 1 2 0.0000000000000000e+00 -5.3464939999999999e+00 1.2203020000000000e+00 2.3396999000000001e+01 0 0 0
304 1 1 0.0000000000000000e+00 -4.9409039999999997e+00 2.3794140000000001e+00 2.4106000999999999e+01 0 0 0
302 1 1 0.0000000000000000e+00 -4.2875560000000004e+00 3.4192119999999999e+00 2.1978999999999999e+01 0 0 0
303 1 2 0.0000000000000000e+00 -4.2875560000000004e+00 3.4192119999999999e+00 2.3396999000000001e+01 0 0 0
299 1 2 0.0000000000000000e+00 -2.3794140000000001e+00 4.9409039999999997e+00 2.3396999000000001e+01 0 0 0
298 1 1 0.0000000000000000e+00 -2.3794140000000001e+00 4.9409039999999997e+00 2.1978999999999999e+01 0 0 0
300 1 1 0.0000000000000000e+00 -3.4192119999999999e+00 4.2875560000000004e+00 2.4106000999999999e+01 0 0 0
394 21 3 -8.3399999999999996e-01 -1.3097266033815782e+00 1.6535603842471807e+00 1.9360639366769529e+01 0 0 -31
420 29 4 4.1699999999999998e-01 -1.7560745196287597e+00 1.7294392143430137e+00 2.2870646601397365e+01 0 0 -27
396 21 4 4.1699999999999998e-01 -1.3514890164381397e+00 1.8390824519837847e+00 2.0298760045971211e+01 0 0 -31
418 29 3 -8.3399999999999996e-01 -1.2318418765679267e+00 1.5871812968317598e+00 2.2082500233111478e+01 0 0 -27
463 44 3 -8.3399999999999996e-01 -1.6270032792954536e+00 1.5747294011155422e+00 2.4662355893760047e+01 0 0 -18
419 29 4 4.1699999999999998e-01 -3.2821968987312811e-01 1.5596438607139982e+00 2.2397048336598154e+01 0 0 -27
45 1 2 0.0000000000000000e+00 1.2203020000000000e+00 -5.3464939999999999e+00 0.0000000000000000e+00 0 0 0
49 1 2 0.0000000000000000e+00 3.4192119999999999e+00 -4.2875560000000004e+00 0.0000000000000000e+00 0 0 0
42 1 1 0.0000000000000000e+00 0.0000000000000000e+00 -5.4839900000000004e+00 7.0899999999999996e-01 0 0 0
46 1 1 0.0000000000000000e+00 2.3794140000000001e+00 -4.9409039999999997e+00 7.0899999999999996e-01 0 0 0
50 1 1 0.0000000000000000e+00 4.2875560000000004e+00 -3.4192119999999999e+00 7.0899999999999996e-01 0 0 0
43 1 2 0.0000000000000000e+00 0.0000000000000000e+00 -5.4839900000000004e+00 2.1269999999999998e+00 0 0 0
47 1 2 0.0000000000000000e+00 2.3794140000000001e+00 -4.9409039999999997e+00 2.1269999999999998e+00 0 0 0
51 1 2 0.0000000000000000e+00 4.2875560000000004e+00 -3.4192119999999999e+00 2.1269999999999998e+00 0 0 0
53 1 2 0.0000000000000000e+00 4.9409039999999997e+00 -2.3794140000000001e+00 0.0000000000000000e+00 0 0 0
110 1 1 0.0000000000000000e+00 5.3464939999999999e+00 -1.2203020000000000e+00 4.9630000000000001e+00 0 0 0
106 1 1 0.0000000000000000e+00 4.2875560000000004e+00 -3.4192119999999999e+00 4.9630000000000001e+00 0 0 0
109 1 2 0.0000000000000000e+00 4.9409039999999997e+00 -2.3794140000000001e+00 4.2539999999999996e+00 0 0 0
52 1 1 0.0000000000000000e+00 4.9409039999999997e+00 -2.3794140000000001e+00 2.8359999999999999e+00 0 0 0
367 12 3 -8.3399999999999996e-01 4.9246273493000614e-01 -2.2356674447279654e+00 4.2658790188258564e+00 0 0 -39
54 1 1 0.0000000000000000e+00 5.3464939999999999e+00 -1.2203020000000000e+00 7.0899999999999996e-01 0 0 0
55 1 2 0.0000000000000000e+00 5.3464939999999999e+00 -1.2203020000000000e+00 2.1269999999999998e+00 0 0 0
44 1 1 0.0000000000000000e+00 1.2203020000000000e+00 -5.3464939999999999e+00 2.8359999999999999e+00 0 0 0
48 1 1 0.0000000000000000e+00 3.4192119999999999e+00 -4.2875560000000004e+00 2.8359999999999999e+00 0 0 0
101 1 2 0.0000000000000000e+00 1.2203020000000000e+00 -5.3464939999999999e+00 4.2539999999999996e+00 0 0 0
105 1 2 0.0000000000000000e+00 3.4192119999999999e+00 -4.2875560000000004e+00 4.2539999999999996e+00 0 0 0
98 1 1 0.0000000000000000e+00 0.0000000000000000e+00 -5.4839900000000004e+00 4.9630000000000001e+00 0 0 0
102 1 1 0.0000000000000000e+00 2.3794140000000001e+00 -4.9409039999999997e+00 4.9630000000000001e+00 0 0 0
368 12 4 4.1699999999999998e-01 6.1787413728784013e-01 -2.4046929758725852e+00 5.1996536985442336e+00 0 0 -39
461 43 4 4.1699999999999998e-01 1.5552411174747296e+00 -1.0115852519255299e+00 7.4405051688140478e-01 0 0 -17
400 23 3 -8.3399999999999996e-01 3.5789382229574590e-01 -2.2382117466138816e+00 1.2180555870888676e+00 0 0 -28
401 23 4 4.1699999999999998e-01 8.0298033242286393e-01 -2.8113525498293650e+00 1.8422668185978304e+00 0 0 -28
398 22 4 4.1699999999999998e-01 1.8072751987141085e+00 -9.9586453407856224e-01 3.9503403290080237e+00 0 0 -28
460 43 3 -8.3399999999999996e-01 2.1625080918197703e+00 -2.7987444217663549e-01 8.5385932522895736e-01 0 0 -17
397 22 3 -8.3399999999999996e-01 2.4053401989763756e+00 -2.7960255560603259e-01 3.7369887550786691e+00 0 0 -28
462 43 4 4.1699999999999998e-01 2.5520101345716526e+00 -4.1874172511200219e-01 1.7171297900614704e+00 0 0 -17
399 22 4 4.1699999999999998e-01 2.9034689392821482e+00 -1.3517711265040838e-01 4.5415015920628639e+00 0 0 -28
157 1 2 0.0000000000000000e+00 1.2203020000000000e+00 -5.3464939999999999e+00 8.5079999999999991e+00 0 0 0
100 1 1 0.0000000000000000e+00 1.2203020000000000e+00 -5.3464939999999999e+00 7.0899999999999999e+00 0 0 0
103 1 2 0.0000000000000000e+00 2.3794140000000001e+00 -4.9409039999999997e+00 6.3810000000000002e+00 0 0 0
161 1 2 0.0000000000000000e+00 3.4192119999999999e+00 -4.2875560000000004e+00 8.5079999999999991e+00 0 0 0
99 1 2 0.0000000000000000e+00 0.0000000000000000e+00 -5.4839900000000004e+00 6.3810000000000002e+00 0 0 0
104 1 1 0.0000000000000000e+00 3.4192119999999999e+00 -4.2875560000000004e+00 7.0899999999999999e+00 0 0 0
107 1 2 0.0000000000000000e+00 4.2875560000000004e+00 -3.4192119999999999e+00 6.3810000000000002e+00 0 0 0
108 1 1 0.0000000000000000e+00 4.9409039999999997e+00 -2.3794140000000001e+00 7.0899999999999999e+00 0 0 0
165 1 2 0.0000000000000000e+00 4.9409039999999997e+00 -2.3794140000000001e+00 8.5079999999999991e+00 0 0 0
164 1 1 0.0000000000000000e+00 4.9409039999999997e+00 -2.3794140000000001e+00 1.1343999999999999e+01 0 0 0
167 1 2 0.0000000000000000e+00 5.3464939999999999e+00 -1.2203020000000000e+00 1.0635000000000000e+01 0 0 0
166 1 1 0.0000000000000000e+00 5.3464939999999999e+00 -1.2203020000000000e+00 9.2170000000000005e+00 0 0 0
111 1 2 0.0000000000000000e+00 5.3464939999999999e+00 -1.2203020000000000e+00 6.3810000000000002e+00 0 0 0
154 1 1 0.0000000000000000e+00 0.0000000000000000e+00 -5.4839900000000004e+00 9.2170000000000005e+00 0 0 0
155 1 2 0.0000000000000000e+00 0.0000000000000000e+00 -5.4839900000000004e+00 1.0635000000000000e+01 0 0 0
163 1 2 0.0000000000000000e+00 4.2875560000000004e+00 -3.4192119999999999e+00 1.0635000000000000e+01 0 0 0
159 1 2 0.0000000000000000e+00 2.3794140000000001e+00 -4.9409039999999997e+00 1.0635000000000000e+01 0 0 0
162 1 1 0.0000000000000000e+00 4.2875560000000004e+00 -3.4192119999999999e+00 9.2170000000000005e+00 0 0 0
156 1 1 0.0000000000000000e+00 1.2203020000000000e+00 -5.3464939999999999e+00 1.1343999999999999e+01 0 0 0
160 1 1 0.0000000000000000e+00 3.4192119999999999e+00 -4.2875560000000004e+00 1.1343999999999999e+01 0 0 0
158 1 1 0.0000000000000000e+00 2.3794140000000001e+00 -4.9409039999999997e+00 9.2170000000000005e+00 0 0 0
415 28 3 -8.3399999999999996e-01 3.6624419244959316e-01 -2.4610604648862022e+00 9.7573406563209719e+00 0 0 -24
431 33 4 4.1699999999999998e-01 5.7490991668456970e-01 -2.3916555222937701e+00 8.0168216950998339e+00 0 0 -28
359 9 4 4.1699999999999998e-01 1.4510539121375103e+00 -7.0943892446334100e-01 8.7626488837339185e+00 0 0 -39
417 28 4 4.1699999999999998e-01 5.2379834951099780e-01 -3.0359766778107065e+00 1.0506260084889428e+01 0 0 -24
423 30 4 4.1699999999999998e-01 1.8336308691218317e+00 -3.7331045446505923e-01 6.7610715461467024e+00 0 0 -26