LAMMPS data file via write_data, version 21 Jul 2020, timestep = 2600000

20840 atoms
17 atom types
1787 bonds
21 bond types
3214 angles
44 angle types
4692 dihedrals
69 dihedral types
357 impropers
7 improper types

-500.0 500.0 xlo xhi
-500.0 500.0 ylo yhi
-500.0 500.0 zlo zhi

Masses

1 15.9994
2 12.0112
3 12.0112
4 14.0067
5 14.0067
6 1.00797
7 1.00797
8 12.0112
9 12.0112
10 15.9994
11 30.9738
12 15.9994
13 32.064
14 1.00797
15 22.99
16 65.38
17 32.06

Pair Coeffs # lj/cut/coul/long

1 0.0228 2.85978
2 0.0148 3.61705
3 0.0148 3.61705
4 0.0167 3.50123
5 0.0167 3.50123
6 0.0038 2.44997
7 0 0
8 0.0039 3.87541
9 0.0039 3.87541
10 0.0228 2.85978
11 0.0199998 3.74178
12 0.0228 2.85978
13 0.00429759 3.36775
14 0 0
15 0.160714 1.89744
16 35.7426 0.02
17 0.0327669 4.9

Bond Coeffs # harmonic

1 384 1.42
2 540.634 0.96
3 280 1.39
4 280 1.34
5 320 1.38
6 363.416 1.08
7 388 1.32
8 560 1.26
9 363.416 1.08
10 457.459 1.026
11 336.8 1.475
12 322.716 1.526
13 273.2 1.425
14 322.716 1.526
15 340.618 1.105
16 340.618 1.105
17 273.2 1.425
18 245.2 1.61
19 480 1.53
20 147.12 2.05275
21 300 1.57

Angle Coeffs # harmonic

1 58.5 106
2 90 120
3 90 120
4 90 120
5 102 134
6 40 120
7 102 120
8 90 120
9 102 120
10 102 134
11 50 120
12 37.5 115
13 33 125
14 75.1 114
15 75.1 114
16 75.1 114
17 70 128.8
18 70 109.5
19 46.6 110.5
20 44.4 110
21 70 109.5
22 57 109.5
23 44.4 110
24 70 109.5
25 70 109.5
26 57 109.5
27 46.6 110.5
28 44.4 110
29 39.5 106.4
30 80 109.5
31 80 109.5
32 80 109.5
33 60 109.5
34 70 109.5
35 57 109.5
36 72 120
37 110 109.5
38 110 109.5
39 110 109.5
40 72 120
41 110 109.5
42 110 109.5
43 110 109.5
44 50 112

Dihedral Coeffs # harmonic

1 0.13 1 3
2 0.13 1 3
3 0.13 1 3
4 3 -1 2
5 3 -1 2
6 3 -1 2
7 3 -1 2
8 3 -1 2
9 3 -1 2
10 2 -1 2
11 2 -1 2
12 2 -1 2
13 2 -1 2
14 2 -1 2
15 2 -1 2
16 2 -1 2
17 2 -1 2
18 2 -1 2
19 2.5 -1 2
20 2.5 -1 2
21 2 -1 2
22 2 -1 2
23 2 -1 2
24 2 -1 2
25 2 -1 2
26 2 -1 2
27 0.1 1 3
28 0.1 1 3
29 0.1 1 3
30 0.1581 1 3
31 0.1581 1 3
32 0.1581 1 3
33 0.1581 1 3
34 0.1581 1 3
35 0.1581 1 3
36 0.1581 1 3
37 0.1581 1 3
38 0.13 1 3
39 0.13 1 3
40 0.13 1 3
41 0.1581 1 3
42 0.1581 1 3
43 0.1581 1 3
44 0.1581 1 3
45 0.1581 1 3
46 0.1581 1 3
47 0.1581 1 3
48 0.1581 1 3
49 0.1581 1 3
50 0.1581 1 3
51 0.1581 1 3
52 0.1581 1 3
53 0.1581 1 3
54 0.13 1 3
55 0.13 1 3
56 0.13 1 3
57 0.25 1 3
58 0.25 1 3
59 0.25 1 3
60 0.25 1 3
61 0.13 1 3
62 0.13 1 3
63 0.13 1 3
64 0.1581 1 3
65 0.25 1 3
66 0.25 1 3
67 0.25 1 3
68 0.25 1 3
69 0.25 1 3

Improper Coeffs # cvff

1 0.37 -1 2
2 0.37 -1 2
3 0.37 -1 2
4 0.37 -1 2
5 0.37 -1 2
6 0.37 -1 2
7 0.37 -1 2

Atoms # full

1675 0 15 1.0 -444.95278665109623 -333.7171545711504 -287.8934798541332 -2 1 -1
1679 0 15 1.0 -420.39095259955525 -420.6899336722356 -223.89589865246958 2 -1 -2
1639 0 15 1.0 -443.7697816771886 -358.945251778596 -144.15087737324683 -1 -1 0
1662 0 15 1.0 -250.4117140830695 -460.81511708236474 106.09472100498539 3 -2 -1
1680 0 15 1.0 -346.41267762655104 -76.52142463270916 198.2260546370111 2 0 1
1664 0 15 1.0 -260.76310187588723 -126.10474707741936 278.232582879143 1 1 -1
1681 0 15 1.0 -312.82602067998346 175.15381933768919 -441.61729719629625 -2 -1 -1
1655 0 15 1.0 -400.6515564915227 481.5524660310696 -93.32003008015106 -2 -3 2
1658 0 15 1.0 -268.9288197754441 325.7516579079434 323.19060955281657 1 -4 2
1671 0 15 1.0 -303.2837992700866 330.71097639548543 471.0025470963585 0 -2 -2
1656 0 15 1.0 -310.64577393774493 424.3742282213115 483.0088254823002 1 -1 -2
1685 0 15 1.0 -72.56338740528135 -216.11961855598864 -450.80696783899015 0 2 0
1668 0 15 1.0 -173.35604051247697 -183.07848099436336 -295.38649218594776 -1 -1 2
1677 0 15 1.0 -121.1734808779843 -260.4772348495838 -219.9490403438428 2 -1 -2
1651 0 15 1.0 -212.80013269356093 -307.0345330978066 -147.45522787994346 3 3 -3
1659 0 15 1.0 -144.13946431290202 -284.96266157792553 -119.97988116452183 1 1 -3
1646 0 15 1.0 -65.75946844869283 -204.14015522635182 73.63807752243119 0 -2 -1
1684 0 15 1.0 -162.55430606546818 -490.0989320207929 420.63918760530976 1 0 3
1647 0 15 1.0 -21.158223614109193 27.36858150234152 -346.0377763166094 0 0 3
1669 0 15 1.0 -222.19384556082784 -71.73602373701925 -102.0903030598981 -1 1 0
1665 0 15 1.0 -108.71505092845669 -138.40251159662043 -97.29534724782027 -2 -1 -1
1667 0 15 1.0 -147.00205419927462 -93.57149294490593 -70.07128895130559 0 0 -1
1287 1 4 -0.665 -6.505378027257193 35.61008089362105 4.853022741602305 0 0 0
1295 1 7 0.28 -7.330535067290347 35.19995665689709 4.521740838976846 0 0 0
1291 1 5 -0.39 -9.287399615376588 39.02227373034683 5.9820073342748685 0 0 0
1282 1 2 0.14 -7.762868390580558 37.39897599231235 5.553236713985475 0 0 0
1290 1 5 -0.28 -8.870571482343964 36.76743174798753 5.163992206999208 0 0 0
1284 1 2 0.15 -9.690672791714563 37.78459707000438 5.4304444983360565 0 0 0
1292 1 6 0.13 -10.686937775832273 37.650083133672226 5.115212586216161 0 0 0
1285 1 3 0.215 -6.6108964348991215 36.83310609207639 5.385622251274533 0 0 0
1283 1 2 0.28 -7.906516887527323 38.66148148756493 6.176065899054838 0 0 0
1309 1 6 0.1 -12.054959235969955 40.39637935312402 5.341051010436063 0 0 0
1298 1 9 -0.2 -11.553592274950324 39.954992680566384 6.245456480899301 0 0 0
1294 1 7 0.28 -5.565908990375779 35.36382626352688 4.726815324383493 0 0 0
1288 1 5 -0.22 -5.615913868787124 37.375725361121276 5.927269153118686 0 0 0
1311 1 6 0.1 -9.722917511832364 41.068537277587865 5.63277102854278 0 0 0
1308 1 6 0.1 -12.879818790293431 40.184575875579355 7.808827027821073 0 0 0
1289 1 5 -0.25 -6.835879116882057 39.229089879888484 6.71483141989331 0 0 0
1310 1 6 0.1 -11.764526759043802 38.91457429252147 6.586163686891606 0 0 0
1299 1 8 0.16 -10.0511367283039 40.22584598254836 6.268121649835505 0 0 0
1312 1 6 0.1 -11.147396065706408 39.01069210200083 9.48232490799779 0 0 0
1304 1 12 -0.85 -10.006948142129778 38.75991678831425 12.461318902739563 0 0 0
1303 1 11 1.4 -9.468075425361901 40.08579142499541 11.871907116617612 0 0 0
1340 1 6 0.1 -7.3204818139154195 38.73417483150631 11.02318124100779 0 0 0
1329 1 8 0.05 -6.961266343000959 39.5817923237585 11.603995624486046 0 0 0
1300 1 10 -0.3 -9.700935175210805 40.60171832751052 7.609601020394562 0 0 0
1301 1 9 -0.05 -10.851205161448146 40.10753313367934 9.672530015287203 0 0 0
1297 1 8 0.05 -12.027776977300581 40.7103077526372 7.426857618731138 0 0 0
1313 1 6 0.1 -11.632363247364113 40.466498506523614 10.358730762209246 0 0 0
1302 1 10 -0.5 -9.580521264315015 40.05394408207558 10.285715434350948 0 0 0
1306 1 10 -0.5 -7.935171789998018 40.27681458430459 12.338179620832888 0 0 0
1286 1 3 0.12 -5.818424913675244 38.53448010409908 6.394734447249873 0 0 0
1293 1 6 0.1 -4.869729666987497 39.00705932073942 6.690545657055467 0 0 0
1373 1 6 0.1 -0.4656838767872566 34.980162862046434 11.162515474584916 0 0 0
1336 1 12 -0.85 -2.0915416638034254 36.97487891611637 10.652222088318656 0 0 0
1345 1 6 0.1 -5.6447345383429095 37.33689239054128 11.390946549586555 0 0 0
1342 1 6 0.1 -5.649210105266803 40.02226852920005 9.86217184960654 0 0 0
1344 1 6 0.1 -4.796852426144887 38.629391273767894 10.722149472832047 0 0 0
1333 1 9 -0.05 -4.990819512356342 38.13266190280042 11.69962044232218 0 0 0
1335 1 11 1.4 -2.8338566661347153 36.498073597772255 11.85409653014307 0 0 0
1324 1 6 0.13 -2.483934196978799 40.25436601967289 11.701216171154403 0 0 0
1330 1 9 -0.2 -6.244262187650222 40.55566049234443 10.683941547958485 0 0 0
1362 1 9 -0.2 -0.08190442360715094 34.74914106298669 12.180261115838901 0 0 0
1337 1 12 -0.85 -3.702748853106391 35.26604060530414 11.567079817660801 0 0 0
1334 1 10 -0.5 -3.7747414201062117 37.78066314454288 12.347201356526872 0 0 0
1248 1 6 0.1 -20.450332737385335 44.64338103702811 11.518144187846332 0 0 0
1237 1 9 -0.05 -19.936048893319818 44.59328796716986 12.479627019560311 0 0 0
1236 1 10 -0.3 -19.30957749353683 46.77156696540417 12.020933967261486 0 0 0
1272 1 12 -0.85 -14.113462648723031 43.93749934695824 6.721504827325821 0 0 0
1273 1 12 -0.85 -15.06192520555261 41.6723458767105 7.084266348077354 0 0 0
1264 1 8 0.05 -14.610846079824201 43.84083879637 11.209097892226303 0 0 0
1269 1 9 -0.05 -14.940117653273013 43.244652591884446 9.848395769932042 0 0 0
1281 1 6 0.1 -15.69444116736511 42.42803695770825 10.031827341740923 0 0 0
1280 1 6 0.1 -15.4336765837609 44.02889049718663 9.223761619592393 0 0 0
1271 1 11 1.4 -13.921398136795629 42.63091776222444 7.408708909331023 0 0 0
1276 1 6 0.1 -16.599131885476424 44.75635043267656 11.149837828933602 0 0 0
1275 1 6 0.1 -14.093824829057686 43.09472327379777 11.866969768126477 0 0 0
1270 1 10 -0.5 -13.79016002309791 42.774058597906624 9.023879150279122 0 0 0
1268 1 10 -0.3 -13.719284903774659 44.89451888391419 11.007653992901405 0 0 0
1267 1 8 0.16 -14.14003571381415 45.97675230100004 11.802031274804705 0 0 0
1260 1 6 0.13 -16.75419886190443 46.5984246744329 10.662184617581305 0 0 0
1265 1 8 0.05 -15.846156998088567 44.37545730261705 11.83263684222077 0 0 0
1238 1 10 -0.5 -18.685590142197736 44.102340677213746 12.090763955943043 0 0 0
1279 1 6 0.1 -13.263080289153871 46.366232436985996 12.43656794882043 0 0 0
1259 1 5 -0.39 -14.660837404773378 47.02399456554242 10.891255515980072 0 0 0
1296 1 8 0.05 -10.885916065457646 40.94952594724668 8.355617794552947 0 0 0
1274 1 10 -0.5 -12.496809082568255 41.96602140681637 6.912447536377914 0 0 0
1341 1 6 0.1 -6.947072714741585 41.24967049891744 10.136567769856148 0 0 0
1307 1 6 0.1 -10.793632765696145 42.04007481739511 8.619259690582375 0 0 0
1305 1 12 -0.85 -10.394471048687365 41.19191911284425 12.443991649953935 0 0 0
1316 1 2 0.15 -2.6649617859595187 41.06337896551835 10.949144580816228 0 0 0
1322 1 5 -0.28 -1.6611012105349445 41.358465295454714 10.083740823747585 0 0 0
1331 1 8 0.16 -5.197258173203393 41.222536116917766 11.628998143779372 0 0 0
1323 1 5 -0.39 -3.9222057638421215 41.60550376232062 10.855659266062109 0 0 0
1314 1 2 0.14 -2.40244072003025 42.268812548945434 9.313471791835509 0 0 0
1315 1 2 0.28 -3.6992065110492725 42.40187528794988 9.712051134513151 0 0 0
1317 1 3 0.215 -1.8901366725844992 42.94588523626501 8.324181946679426 0 0 0
1325 1 6 0.1 -4.485817712271705 44.403819165923046 7.302099951568136 0 0 0
1318 1 3 0.12 -3.93492425067171 43.63084977928888 7.92867080810464 0 0 0
1320 1 5 -0.22 -2.6723494750092174 43.626643290545246 7.638275560373008 0 0 0
1321 1 5 -0.25 -4.517984051385679 43.244749854079394 8.94126305844735 0 0 0
1319 1 4 -0.665 -0.6198528538775699 42.843818201568254 7.991953633213481 0 0 0
1343 1 6 0.1 -5.656912192664036 42.094450759634526 12.080404654805067 0 0 0
1326 1 7 0.28 -0.09585590751978404 43.44201345322259 7.243188453763958 0 0 0
1327 1 7 0.28 -0.08089625800527858 42.163105845228685 8.574429377803664 0 0 0
1229 1 6 0.1 -24.844690097317798 49.73588829707867 12.129027968413721 0 0 0
1225 1 5 -0.25 -23.005276200523042 49.06357272340714 12.031800720432258 0 0 0
1222 1 3 0.12 -24.029046935350713 49.46820439009654 11.482938100661606 0 0 0
1219 1 2 0.28 -21.943900313111797 48.91105253404011 11.081178174367896 0 0 0
1224 1 5 -0.22 -24.36981888863683 49.57435577443469 10.315248835415568 0 0 0
1221 1 3 0.215 -23.502967444714617 49.56877619973692 9.376226656930273 0 0 0
1218 1 2 0.14 -22.23852118622007 49.09226063166512 9.705064659591596 0 0 0
1230 1 7 0.28 -24.841797769598937 49.671495826179836 7.997796772664456 0 0 0
1223 1 4 -0.665 -23.837568052314108 49.74582625070176 8.09542434785595 0 0 0
1231 1 7 0.28 -23.139369063904667 49.58462462320625 7.3836378973976515 0 0 0
1227 1 5 -0.39 -20.62904856632691 48.49778875101821 11.187247543778307 0 0 0
1226 1 5 -0.28 -21.07901789906174 49.0076189513619 8.90694615103395 0 0 0
1220 1 2 0.15 -20.223550663491476 48.68033497573204 9.934929771582338 0 0 0
1228 1 6 0.13 -19.174238580780525 48.70878048337456 9.660541044707047 0 0 0
1235 1 8 0.16 -19.75758852072061 48.06403084192449 12.307900431233662 0 0 0
1247 1 6 0.1 -18.972705911811275 48.8716350395343 12.364495768917642 0 0 0
1252 1 2 0.15 -15.909579018783973 47.1853954139353 10.318155280477441 0 0 0
1263 1 7 0.28 -16.200036573618334 50.00624700889041 8.04760492924065 0 0 0
1258 1 5 -0.28 -16.11256570523689 48.26738403878942 9.457568827573207 0 0 0
1255 1 4 -0.665 -15.224190442838337 50.22164927627995 7.936226278660581 0 0 0
1262 1 7 0.28 -14.861931061904123 51.015311154344964 7.386426784515663 0 0 0
1250 1 2 0.14 -14.816425813838814 48.714801575769776 9.453408766394167 0 0 0
1256 1 5 -0.22 -13.237550260906348 50.07409346955053 8.831235736000048 0 0 0
1251 1 2 0.28 -13.957399385497848 48.042621969645886 10.276957003604684 0 0 0
1253 1 3 0.215 -14.420021572717536 49.711466407466006 8.77818679324113 0 0 0
1257 1 5 -0.25 -12.641489174383407 48.35631924031944 10.271566477121286 0 0 0
1254 1 3 0.12 -12.430893007631607 49.3836790107496 9.520196735843356 0 0 0
1261 1 6 0.1 -11.37550357909462 49.738150195154155 9.46402152558392 0 0 0
1643 0 15 1.0 -15.040446100892119 146.2620072076718 7.896199406799782 -1 3 4
1372 1 6 0.1 -1.9847682772900157 34.22593532433582 13.23269459800031 0 0 0
1365 1 9 -0.05 -0.39500427206574223 33.56927197199794 15.06514456351269 0 0 0
1376 1 6 0.1 -1.3360752532755715 33.08852412129793 14.850313644922194 0 0 0
1377 1 6 0.1 -0.28268927101551095 33.5599450719435 16.16792651482241 0 0 0
1404 1 6 0.1 -0.4773795581318645 29.923896086927694 17.046720363770262 0 0 0
1369 1 12 -0.85 -0.14071874407494395 30.447141052918617 14.78658691747026 0 0 0
1189 1 3 0.215 -20.37504522647986 38.88408190419057 16.726701380621826 0 0 0
1192 1 5 -0.22 -20.977089499736014 37.98359999764413 17.34159477691042 0 0 0
1193 1 5 -0.25 -22.178703971745442 39.458576463023626 18.644990550847254 0 0 0
1190 1 3 0.12 -21.751094507192846 38.303336952324344 18.312604841339397 0 0 0
1191 1 4 -0.665 -19.411572382678166 38.533359292662894 15.896971945330112 0 0 0
1198 1 7 0.28 -19.204533781705397 37.52455609927924 15.667956197722619 0 0 0
1199 1 7 0.28 -18.86322037574074 39.27235271007071 15.448610694627131 0 0 0
1186 1 2 0.14 -20.612917638265454 40.16912126278512 16.977431702934403 0 0 0
1187 1 2 0.28 -21.62416130256107 40.47244104352272 17.92844369516465 0 0 0
1339 1 6 0.1 -6.221497278318512 38.66359069247793 13.421457573356623 0 0 0
1361 1 8 0.05 -1.156386540605239 34.992277808313155 13.211046331614622 0 0 0
1328 1 8 0.05 -5.782241598851321 39.19421796751766 12.537488361747684 0 0 0
1338 1 10 -0.5 -1.781270188052107 36.225876168582865 13.012321174610964 0 0 0
1360 1 8 0.05 -0.3893084151869904 34.98518219259443 14.57055562878464 0 0 0
1371 1 6 0.1 -0.8130565575410683 35.77481836236136 15.16536181886132 0 0 0
1332 1 10 -0.3 -4.970964518677408 40.38651441477944 12.689804082500935 0 0 0
1145 1 12 -0.85 -32.28528900071207 47.006475550506636 17.92025967047199 0 0 0
1144 1 12 -0.85 -29.79184489720245 46.51219571967378 17.911581853093644 0 0 0
1211 1 6 0.1 -25.317564429709257 44.02874009370199 18.612884693555923 0 0 0
1217 1 6 0.1 -25.285324257025447 45.2013749331411 16.694119581100114 0 0 0
1200 1 8 0.05 -24.31518539289193 44.19840821299776 18.277732647776727 0 0 0
1205 1 9 -0.05 -24.38824151130698 45.312233062927795 17.259205116466017 0 0 0
1249 1 6 0.1 -20.39397007173469 43.838707041407574 13.185819727444896 0 0 0
1209 1 12 -0.85 -24.030796264326014 46.5558009666831 14.36472690290457 0 0 0
1207 1 11 1.4 -22.93233375756193 46.4601479342705 15.424316032634636 0 0 0
1206 1 10 -0.5 -23.292248305939452 45.2404230298114 16.431351882045934 0 0 0
1195 1 5 -0.39 -21.705798353680983 41.84093693253764 18.008207423581183 0 0 0
1204 1 10 -0.3 -23.77781628513481 42.99469926277692 17.864450753195207 0 0 0
1196 1 6 0.13 -20.570353118134335 43.18974553110313 16.72484594322637 0 0 0
1188 1 2 0.15 -20.762420145739245 42.20165716641461 17.04935839244385 0 0 0
1194 1 5 -0.28 -19.915721339522456 41.26459602448186 16.421515864206004 0 0 0
1203 1 8 0.16 -22.763250208837956 42.627338078822774 18.74933119455573 0 0 0
1210 1 10 -0.5 -21.487414290979036 46.10735893177737 14.78595419257693 0 0 0
1232 1 8 0.05 -19.816061917857496 45.948703093397285 13.045541186786874 0 0 0
1216 1 6 0.1 -24.368223109677235 46.31007485944947 17.720482706498117 0 0 0
1244 1 6 0.1 -21.996587797769678 46.555730539082624 12.77730513584848 0 0 0
1243 1 6 0.1 -19.10245287093452 45.96355921401167 13.858152057204135 0 0 0
1233 1 8 0.05 -21.09960082525202 46.56699351966202 13.493098142133135 0 0 0
1242 1 10 -0.5 -16.31650512340452 43.3904839889979 12.625409907875278 0 0 0
1266 1 9 -0.2 -15.304239078646603 45.506868731860614 12.678544168750928 0 0 0
1278 1 6 0.1 -16.04872250912458 46.28423679453873 12.934594931604677 0 0 0
1240 1 12 -0.85 -18.41579529382954 42.16179617347166 13.64300749282081 0 0 0
1241 1 12 -0.85 -17.737818152175326 44.30659402843601 14.50278278043297 0 0 0
1239 1 11 1.4 -17.792651762870424 43.47132617694856 13.216566062811559 0 0 0
1277 1 6 0.1 -14.842227622634708 45.181414628318024 13.602394940597064 0 0 0
1153 1 6 0.1 -31.604179990170838 49.71152935056201 17.851816668045398 0 0 0
1133 1 6 0.1 -31.85981302601425 53.44561941284348 14.2282631938455 0 0 0
1129 1 5 -0.25 -31.72215301926578 53.40176695658438 16.240289872811744 0 0 0
1152 1 6 0.1 -29.75348050299114 49.77678295731754 18.103194699076692 0 0 0
1141 1 9 -0.05 -30.732201960234203 49.684800913165816 18.527300130217636 0 0 0
1140 1 10 -0.3 -30.679797215945445 52.10508377403443 18.689873976652464 0 0 0
1208 1 12 -0.85 -22.915240031032386 47.84300663255931 16.174575894487194 0 0 0
1234 1 9 -0.2 -20.586958610900172 47.990718594341416 13.611060753090698 0 0 0
1245 1 6 0.1 -19.936899133918594 48.16514536488605 14.478190859621435 0 0 0
1246 1 6 0.1 -21.479504798939487 48.731444356364705 13.677967601317755 0 0 0
1126 1 3 0.12 -32.399533749005734 53.55759487802669 15.156346036968948 0 0 0
1123 1 2 0.28 -32.50010440186575 53.71344958788884 17.333586346466806 0 0 0
1128 1 5 -0.22 -33.56004773573124 53.85619526634205 14.875430813851285 0 0 0
1122 1 2 0.14 -33.73846832652313 54.249809031273074 17.09931540356247 0 0 0
1135 1 7 0.28 -35.91300581492752 55.31270817946368 16.218692196520163 0 0 0
1125 1 3 0.215 -34.26993773191073 54.204377984680825 15.831933454345778 0 0 0
1127 1 4 -0.665 -35.45288992801052 54.69277100205654 15.58647151905096 0 0 0
1130 1 5 -0.28 -34.51457923472591 54.38889511388023 18.265631316526633 0 0 0
1131 1 5 -0.39 -32.338760245413 53.606931900505536 18.714924242233806 0 0 0
1134 1 7 0.28 -35.68779078372687 54.528530391328495 14.599217675725892 0 0 0
1441 1 6 0.1 -1.9563261707560735 26.608357005963782 24.895892001019043 0 0 0
1429 1 9 -0.05 -1.189691499814861 27.312471815724244 24.755781229492012 0 0 0
1440 1 6 0.1 -0.5996167917475993 26.96337291056861 23.964571669525476 0 0 0
1408 1 6 0.1 -0.2871888627811454 28.357158337421126 19.2183447190253 0 0 0
1424 1 8 0.05 -1.8450495488733603 28.652856049198995 24.4558673266441 0 0 0
1435 1 6 0.1 -2.5992506383354024 28.436181604316737 23.655287778239256 0 0 0
1400 1 12 -0.85 -2.9851720279719562 29.633849012759985 21.734045016548187 0 0 0
1399 1 11 1.4 -1.6860628778068154 30.411002334201637 21.797073944536507 0 0 0
1401 1 12 -0.85 -1.9329886152511309 31.715726122040344 21.051804111440248 0 0 0
1409 1 6 0.1 -1.4752255597477233 29.704473030354276 19.115704351926976 0 0 0
1402 1 10 -0.5 -1.3278180889990623 30.661188680517938 23.289171590853734 0 0 0
1425 1 8 0.05 -0.7970698801757211 29.64444061235667 24.104149999445344 0 0 0
1398 1 10 -0.5 -0.5730660229372766 29.55564897089463 21.006786877940332 0 0 0
1397 1 9 -0.05 -0.4867493939216918 29.410155718630662 19.549242567873012 0 0 0
1160 1 5 -0.22 -27.381057835100428 40.21079671499922 24.19211316795057 0 0 0
1157 1 3 0.215 -28.60741219228545 39.92819965814619 24.345461212669694 0 0 0
1154 1 2 0.14 -29.51390114353181 40.71658653322417 23.727860021478055 0 0 0
1162 1 5 -0.28 -30.875639950560025 40.39134460446695 23.618272900837972 0 0 0
1197 1 6 0.1 -22.042224750287236 37.52237674644968 19.056034464824382 0 0 0
1181 1 6 0.1 -31.838597563119222 44.74328196254231 22.303585230641715 0 0 0
1164 1 6 0.13 -32.32007739035107 41.553688835909746 22.795003196455855 0 0 0
1146 1 10 -0.5 -31.284423019398012 45.92650748842421 20.02568583929582 0 0 0
1156 1 2 0.15 -31.275173529982606 41.44391480885764 22.84821997359331 0 0 0
1143 1 11 1.4 -30.988383173413837 47.01433275216569 18.78270267946543 0 0 0
1165 1 6 0.1 -26.121252546033475 41.62827009244359 23.931611471817906 0 0 0
1158 1 3 0.12 -27.11825150595297 41.31968745355869 23.573029914174757 0 0 0
1161 1 5 -0.25 -27.830529810939485 42.12371301172642 22.938435590808098 0 0 0
1183 1 6 0.1 -31.167565155792403 43.12444221896947 20.600851042464786 0 0 0
1155 1 2 0.28 -29.173085841076396 41.80139800380854 22.940614766952155 0 0 0
1170 1 9 -0.2 -30.72451704744677 44.686141746089106 22.11459762692938 0 0 0
1182 1 6 0.1 -30.302569012654903 44.8409941941486 23.156756981294325 0 0 0
1169 1 8 0.05 -30.280097602420465 45.68690990473201 21.085259857524594 0 0 0
1180 1 6 0.1 -30.076008928046328 46.61092005339783 21.646412086071795 0 0 0
1179 1 6 0.1 -29.13236995163157 44.995455966200794 19.283919117974264 0 0 0
1176 1 12 -0.85 -25.647782629094685 44.47177759617774 22.8344410327805 0 0 0
1168 1 8 0.05 -29.087151216345035 45.01014136874815 20.418459405068376 0 0 0
1163 1 5 -0.39 -30.328814439589046 42.31644734476054 22.33944510452965 0 0 0
1172 1 10 -0.3 -29.11229161479441 43.642401589061826 20.78658060802257 0 0 0
1171 1 8 0.16 -30.41065736578612 43.40870416776235 21.393631426608266 0 0 0
1184 1 6 0.1 -27.817487382402298 45.610579189383266 22.11494144665141 0 0 0
1173 1 9 -0.05 -27.844343237815924 45.71777424360354 20.990877880238504 0 0 0
1174 1 10 -0.5 -26.615641060591734 45.286869884651146 20.46665478928583 0 0 0
1175 1 11 1.4 -25.286271882093384 45.035732742001244 21.44160800351225 0 0 0
1185 1 6 0.1 -27.86455388198137 46.84371811731648 20.877177218669033 0 0 0
1214 1 6 0.1 -21.470789058790462 44.43545703905982 18.774737676085902 0 0 0
1215 1 6 0.1 -23.167290532195523 42.03970153912146 19.520104929951977 0 0 0
1202 1 9 -0.2 -22.2103210398571 43.90288349959851 19.411681639769625 0 0 0
1178 1 10 -0.5 -24.23327067291414 44.07673082009727 20.652377742913348 0 0 0
1212 1 6 0.1 -23.50503031076488 45.70962691361635 19.483341716616167 0 0 0
1201 1 8 0.05 -23.54812354532719 44.62714583307325 19.499372444173456 0 0 0
1213 1 6 0.1 -21.810734709801782 43.63179134782602 20.36693315417944 0 0 0
1177 1 12 -0.85 -24.59497917170419 46.41199127043911 21.787079620122363 0 0 0
1113 1 12 -0.85 -33.0575682595801 48.52593353588278 23.062746773144355 0 0 0
1110 1 10 -0.5 -33.12446662458952 50.94262598164691 23.626227696215608 0 0 0
1111 1 11 1.4 -33.128526140218995 49.87131408923509 22.38046771215745 0 0 0
1112 1 12 -0.85 -34.49515210761791 50.01393968135844 21.592110930221992 0 0 0
1148 1 6 0.1 -32.759420960939075 50.91312146995485 19.804455815745943 0 0 0
1137 1 8 0.05 -31.886686508387786 51.07005953401977 20.35766052739509 0 0 0
1150 1 6 0.1 -32.54114136618742 52.94098583500285 21.180819268242427 0 0 0
1109 1 9 -0.05 -32.084775062942775 50.95388798761354 24.621655121108365 0 0 0
1138 1 9 -0.2 -31.68892495265671 52.47429405186535 20.736678803253533 0 0 0
1114 1 10 -0.5 -31.84591369407143 50.22291392973666 21.503611591059087 0 0 0
1139 1 8 0.16 -31.22464717792112 53.098161040635155 19.478298887737285 0 0 0
1149 1 6 0.1 -30.794699562081927 52.494212659106914 21.4079749339571 0 0 0
1142 1 10 -0.5 -30.753173186887523 48.534053825710295 19.365360276875887 0 0 0
1136 1 8 0.05 -30.693379177574588 50.87577087697893 19.397565167090132 0 0 0
1121 1 6 0.1 -31.18600731225376 51.28045908835348 24.12732169811842 0 0 0
1147 1 6 0.1 -29.77820306700506 50.8128945956226 19.999352735097812 0 0 0
1124 1 2 0.15 -33.5226849515115 54.13247893893998 19.131014080186997 0 0 0
1132 1 6 0.13 -33.66454379132185 54.463172558165816 20.14807529302514 0 0 0
1100 1 6 0.13 -32.788297332340825 55.62641782105318 24.206185531217425 0 0 0
1103 1 7 0.28 -35.752029615896916 58.91293731950571 24.163966337008233 0 0 0
1092 1 2 0.15 -33.636709190811565 55.821415742862186 24.772652411388645 0 0 0
1098 1 5 -0.28 -34.27903545994939 56.978345277706744 24.480206460837937 0 0 0
1151 1 6 0.1 -30.437650114162714 53.86550786819588 19.652613445907793 0 0 0
1430 1 10 -0.5 -0.34902778071625457 27.309570222519095 25.86619587354551 0 0 0
1433 1 12 -0.85 -1.42351946029284 25.280247470632354 26.902413703171394 0 0 0
1431 1 11 1.4 -0.056042018636836916 25.909392897688328 26.503961085851525 0 0 0
1420 1 6 0.13 -2.1045932973971455 28.407047334365284 28.210160649803267 0 0 0
1439 1 6 0.1 -2.2072905694176708 31.258585722818516 25.588322848968954 0 0 0
1428 1 10 -0.3 -2.5277418177423097 29.084262880836018 25.644654778290377 0 0 0
1412 1 2 0.15 -2.0043594865702525 29.461346878334695 28.45862611663204 0 0 0
1427 1 8 0.16 -1.865451426217479 30.321783672375606 26.040195539338818 0 0 0
1418 1 5 -0.28 -2.424614928076444 29.772761210084788 29.681391471132788 0 0 0
1414 1 3 0.12 -2.112919617377489 33.65032133874958 29.205042769409104 0 0 0
1417 1 5 -0.25 -1.9618211430443826 32.93103543396259 28.13752557873354 0 0 0
1419 1 5 -0.39 -1.8787580824106835 30.40821342359205 27.528002314372262 0 0 0
1411 1 2 0.28 -2.000814000860528 31.533128140030172 28.326131612726385 0 0 0
1410 1 2 0.14 -2.322638651546556 31.14909830139106 29.581533165883986 0 0 0
1413 1 3 0.215 -2.52470102965513 32.039167974191805 30.610610055616284 0 0 0
1416 1 5 -0.22 -2.40617780943968 33.30384171622169 30.394458361612656 0 0 0
1426 1 9 -0.2 -0.41263186100742416 30.15162267565042 25.500898601413645 0 0 0
1159 1 4 -0.665 -28.961139359144212 38.8298648426248 25.006932227356995 0 0 0
1166 1 7 0.28 -28.126113973527552 38.409255671858105 25.482918551645074 0 0 0
1167 1 7 0.28 -29.92714399873148 38.691551903898954 25.203805638555373 0 0 0
1421 1 6 0.1 -1.8002217288433084 34.66601350665844 29.12085531795064 0 0 0
1084 1 6 0.1 -39.32234687598441 50.38790964098814 30.03843889508373 0 0 0
1069 1 6 0.1 -40.173037816784415 52.15659228937937 26.093875697512857 0 0 0
1065 1 5 -0.25 -39.25311550529417 52.854664047797264 27.710415965035466 0 0 0
1062 1 3 0.12 -39.9911169116731 53.06354829589785 26.67070890570234 0 0 0
1073 1 8 0.05 -38.65166672082174 50.76852120750228 30.813910214657742 0 0 0
1088 1 6 0.1 -37.8369333330773 49.93512648701955 28.721778444947915 0 0 0
1075 1 8 0.16 -37.94572456269982 53.06377198826238 30.800296953829392 0 0 0
1086 1 6 0.1 -40.08514647580394 52.2853656503303 31.15321540780456 0 0 0
1072 1 8 0.05 -37.22911716428126 50.88068999439313 30.370704847860214 0 0 0
1076 1 10 -0.3 -37.0880044520358 52.238928367241094 29.998021829824644 0 0 0
1077 1 9 -0.05 -36.902286497944296 49.96071241562032 29.277847114072003 0 0 0
1089 1 6 0.1 -36.48031680427223 48.94475315343225 29.585338661435074 0 0 0
1116 1 6 0.1 -34.06875282984134 50.652306635819166 25.94592395859248 0 0 0
1081 1 12 -0.85 -33.807922462307445 49.73557912980213 30.05990082603953 0 0 0
1080 1 12 -0.85 -34.3782308773099 48.607352206797444 27.901063552569212 0 0 0
1078 1 10 -0.5 -35.82539574296416 50.5030658289799 28.551870490541624 0 0 0
1079 1 11 1.4 -34.32033694096612 49.902512841841045 28.62758973628508 0 0 0
1082 1 10 -0.5 -33.32919007204589 50.90900239996413 27.827180862070442 0 0 0
1106 1 9 -0.2 -34.40167510350996 52.69354312018038 26.485121272633272 0 0 0
1105 1 8 0.05 -33.58394104141166 51.41902415090188 26.57093300509382 0 0 0
1117 1 6 0.1 -34.990543260844106 52.787021924246964 27.423852321217787 0 0 0
1104 1 8 0.05 -32.36887263347055 51.78938161981246 25.825359369830107 0 0 0
1108 1 10 -0.3 -32.44719844402884 53.17034900944283 25.3918332720252 0 0 0
1118 1 6 0.1 -35.18257699407667 52.67597700955414 25.707458743040593 0 0 0
1115 1 6 0.1 -31.447836085942086 51.705396064067976 26.494284544610405 0 0 0
1120 1 6 0.1 -31.961724761155835 49.91829688145942 25.04478154357025 0 0 0
1064 1 5 -0.22 -40.611284630794756 54.096262287091946 26.287903565220812 0 0 0
1070 1 7 0.28 -42.02155251574528 56.03558073147762 26.069151977669975 0 0 0
1063 1 4 -0.665 -41.47797775268166 55.98197810172634 26.97286526590426 0 0 0
1061 1 3 0.215 -40.66045490632352 55.05774489925292 27.127458273572167 0 0 0
1059 1 2 0.28 -39.19331388241656 53.87810911582837 28.610856179585056 0 0 0
1067 1 5 -0.39 -38.60189296530744 54.060291698034625 29.867708935779756 0 0 0
1058 1 2 0.14 -39.87660985270434 54.95573930983236 28.271141504427934 0 0 0
1060 1 2 0.15 -38.96020620316984 55.36321485301572 30.12267614589459 0 0 0
1068 1 6 0.13 -38.52086753090826 55.84979466674912 30.884306087248017 0 0 0
1066 1 5 -0.28 -39.710288453060706 56.002177708965654 29.19110461377563 0 0 0
1071 1 7 0.28 -41.441764078614746 56.78553410203066 27.628958203138996 0 0 0
1102 1 7 0.28 -36.97605463816451 59.432154053266046 25.43752301370765 0 0 0
1095 1 4 -0.665 -36.290492384851966 58.77403019057501 25.047888826294628 0 0 0
1090 1 2 0.14 -35.227156657921405 56.808106050699095 25.45375694185907 0 0 0
1093 1 3 0.215 -36.15262618733119 57.65925946590293 25.73954091239772 0 0 0
1107 1 8 0.16 -33.36647988835409 53.7689460626851 26.287152497195322 0 0 0
1099 1 5 -0.39 -34.04336032853038 54.93398759559541 25.732485050048673 0 0 0
1096 1 5 -0.22 -37.04462341650791 57.432071899918014 26.601014661634768 0 0 0
1091 1 2 0.28 -35.15271292495291 55.62741023152568 26.16470274458215 0 0 0
1094 1 3 0.12 -36.86806838931512 56.41636624133294 27.304008678940868 0 0 0
1097 1 5 -0.25 -36.04996455050877 55.482289436331236 27.206878753889374 0 0 0
1101 1 6 0.1 -37.48935412720151 56.29366507930405 28.18982338924076 0 0 0
1119 1 6 0.1 -32.92104677032438 53.99243006680705 27.269818439580927 0 0 0
1415 1 4 -0.665 -3.0458772938971 31.60120637575062 31.746269207211427 0 0 0
1422 1 7 0.28 -3.3563592302352525 32.28342747741917 32.49380679697549 0 0 0
1423 1 7 0.28 -3.2892057395922643 30.557401087684937 31.72631681276024 0 0 0
1044 1 10 -0.3 -39.54457640825461 45.108467297739 33.97308007856818 0 0 0
1051 1 6 0.1 -41.63052474584244 45.18002927491959 34.29769584088423 0 0 0
1018 1 10 -0.5 -40.71980844004343 45.5587358474839 36.485519335453205 0 0 0
1043 1 8 0.16 -38.47751395367137 45.63315706969584 34.823383412123064 0 0 0