LAMMPS data file via write_data, version 21 Jul 2020, timestep = 2000000

7396 atoms
17 atom types
1787 bonds
21 bond types
3214 angles
44 angle types
4692 dihedrals
69 dihedral types
357 impropers
7 improper types

-500.0 500.0 xlo xhi
-500.0 500.0 ylo yhi
-500.0 500.0 zlo zhi

Masses

1 15.9994
2 12.0112
3 12.0112
4 14.0067
5 14.0067
6 1.00797
7 1.00797
8 12.0112
9 12.0112
10 15.9994
11 30.9738
12 15.9994
13 32.064
14 1.00797
15 22.99
16 65.38
17 32.06

Pair Coeffs # lj/cut/coul/long

1 0.0228 2.85978
2 0.0148 3.61705
3 0.0148 3.61705
4 0.0167 3.50123
5 0.0167 3.50123
6 0.0038 2.44997
7 0 0
8 0.0039 3.87541
9 0.0039 3.87541
10 0.0228 2.85978
11 0.0199998 3.74178
12 0.0228 2.85978
13 0.00429759 3.36775
14 0 0
15 0.160714 1.89744
16 35.7426 0.02
17 0.0327669 4.9

Bond Coeffs # harmonic

1 384 1.42
2 540.634 0.96
3 280 1.39
4 280 1.34
5 320 1.38
6 363.416 1.08
7 388 1.32
8 560 1.26
9 363.416 1.08
10 457.459 1.026
11 336.8 1.475
12 322.716 1.526
13 273.2 1.425
14 322.716 1.526
15 340.618 1.105
16 340.618 1.105
17 273.2 1.425
18 245.2 1.61
19 480 1.53
20 147.12 2.05275
21 300 1.57

Angle Coeffs # harmonic

1 58.5 106
2 90 120
3 90 120
4 90 120
5 102 134
6 40 120
7 102 120
8 90 120
9 102 120
10 102 134
11 50 120
12 37.5 115
13 33 125
14 75.1 114
15 75.1 114
16 75.1 114
17 70 128.8
18 70 109.5
19 46.6 110.5
20 44.4 110
21 70 109.5
22 57 109.5
23 44.4 110
24 70 109.5
25 70 109.5
26 57 109.5
27 46.6 110.5
28 44.4 110
29 39.5 106.4
30 80 109.5
31 80 109.5
32 80 109.5
33 60 109.5
34 70 109.5
35 57 109.5
36 72 120
37 110 109.5
38 110 109.5
39 110 109.5
40 72 120
41 110 109.5
42 110 109.5
43 110 109.5
44 50 112

Dihedral Coeffs # harmonic

1 0.13 1 3
2 0.13 1 3
3 0.13 1 3
4 3 -1 2
5 3 -1 2
6 3 -1 2
7 3 -1 2
8 3 -1 2
9 3 -1 2
10 2 -1 2
11 2 -1 2
12 2 -1 2
13 2 -1 2
14 2 -1 2
15 2 -1 2
16 2 -1 2
17 2 -1 2
18 2 -1 2
19 2.5 -1 2
20 2.5 -1 2
21 2 -1 2
22 2 -1 2
23 2 -1 2
24 2 -1 2
25 2 -1 2
26 2 -1 2
27 0.1 1 3
28 0.1 1 3
29 0.1 1 3
30 0.1581 1 3
31 0.1581 1 3
32 0.1581 1 3
33 0.1581 1 3
34 0.1581 1 3
35 0.1581 1 3
36 0.1581 1 3
37 0.1581 1 3
38 0.13 1 3
39 0.13 1 3
40 0.13 1 3
41 0.1581 1 3
42 0.1581 1 3
43 0.1581 1 3
44 0.1581 1 3
45 0.1581 1 3
46 0.1581 1 3
47 0.1581 1 3
48 0.1581 1 3
49 0.1581 1 3
50 0.1581 1 3
51 0.1581 1 3
52 0.1581 1 3
53 0.1581 1 3
54 0.13 1 3
55 0.13 1 3
56 0.13 1 3
57 0.25 1 3
58 0.25 1 3
59 0.25 1 3
60 0.25 1 3
61 0.13 1 3
62 0.13 1 3
63 0.13 1 3
64 0.1581 1 3
65 0.25 1 3
66 0.25 1 3
67 0.25 1 3
68 0.25 1 3
69 0.25 1 3

Improper Coeffs # cvff

1 0.37 -1 2
2 0.37 -1 2
3 0.37 -1 2
4 0.37 -1 2
5 0.37 -1 2
6 0.37 -1 2
7 0.37 -1 2

Atoms # full

1674 0 15 1.0 -237.59408370850414 -394.13360820608904 -442.98551204038574 0 -2 4
1647 0 15 1.0 -123.71030694012266 -293.8296387338746 -205.442529296209 -1 -1 -1
1662 0 15 1.0 -498.03023568868684 -337.62990891934 165.19518886304843 3 3 -1
1646 0 15 1.0 -288.01437946879344 -361.0171267347936 275.6732599269521 1 2 1
1658 0 15 1.0 -281.6366048306745 -84.01968858271069 -409.2636431765718 2 -2 2
1644 0 15 1.0 -251.9596567118856 -243.88275329090516 -226.2053906420825 1 -2 0
1681 0 15 1.0 -213.0135251605872 -9.217824104041696 -216.08893462386237 3 -1 -3
1649 0 15 1.0 -441.6478450660231 -31.333130605313226 76.42935192749279 1 2 0
1672 0 15 1.0 -356.21080850112486 -177.07286763581283 119.27304719488545 -1 -2 1
1670 0 15 1.0 -413.2527121574878 -128.06610989874676 168.80552675371203 -1 -1 -1
1667 0 15 1.0 -93.59661402097386 -218.38430698598665 321.30447118058567 0 0 -1
1639 0 15 1.0 -346.7562982912124 83.29947499543675 -416.05113638113386 -1 1 -1
1653 0 15 1.0 -44.69122749596236 128.39209340617086 -59.78213048993522 1 0 1
973 1 6 0.1 -0.6115759654200341 9.578596695443228 37.08923165783821 0 0 0
904 1 5 -0.22 -1.3820682568361624 18.724805613315475 42.90366488757647 0 0 0
906 1 5 -0.28 -0.13173683681312068 15.702722007521922 41.87047870275453 0 0 0
911 1 7 0.28 -1.8032014214144285 16.8746252846211 40.4775868863535 0 0 0
910 1 7 0.28 -2.55019892835884 18.500036453842664 40.81092062877682 0 0 0
903 1 4 -0.665 -1.989372311164467 17.67614443399464 41.06967562544062 0 0 0
901 1 3 0.215 -1.3287917499607629 17.65278606557525 42.23556614359342 0 0 0
898 1 2 0.14 -0.3343819208682169 16.808961629915842 42.52151777285422 0 0 0
937 1 5 -0.25 -0.8892004235066271 4.835117290725087 48.754476896649834 0 0 0
931 1 2 0.28 -0.6337260722655509 6.1133479698147015 48.98038025033648 0 0 0
934 1 3 0.12 -0.8307367951372088 4.069069311519992 49.769334771504504 0 0 0
941 1 6 0.1 -0.7861913650391048 3.017850713050603 49.45539208812714 0 0 0
959 1 6 0.1 -1.5786933902390865 6.683252984513807 46.344516692670425 0 0 0
947 1 8 0.16 -0.8602349948396981 7.422799655966312 46.7889928982693 0 0 0
957 1 6 0.1 -2.101120682094657 8.861215804175156 45.70867246519209 0 0 0
922 1 10 -0.5 -0.5957900705489976 10.568499845403817 44.961753448068926 0 0 0
939 1 5 -0.39 -0.6909797556882652 7.241192528227176 48.16458220883623 0 0 0
958 1 6 0.1 -1.8938206917662659 9.366748948262087 47.30252598449618 0 0 0
945 1 8 0.05 -0.20312306515630627 9.547028988882058 45.97168929842875 0 0 0
946 1 9 -0.2 -1.3525006851013963 8.851192866008324 46.48929597148216 0 0 0
919 1 11 1.4 -0.8275507953455526 12.089343484627957 45.36607685720474 0 0 0
921 1 12 -0.85 -1.6513501053527035 12.195474574457858 46.62065254109384 0 0 0
932 1 2 0.15 -0.40177148210618374 8.220382727271495 49.09055041425727 0 0 0
940 1 6 0.13 -0.4117209813212033 9.289611807218362 48.75472299007878 0 0 0
920 1 12 -0.85 -1.5405705431385366 12.863264148803479 44.23485977975241 0 0 0
876 1 6 0.13 -0.18480943608707048 22.484632676346166 46.524035090602545 0 0 0
893 1 6 0.1 -0.7520931782520035 21.32579357694791 49.046730589839136 0 0 0
909 1 6 0.1 -0.6028831670344313 19.884036298780604 44.27722039944091 0 0 0
902 1 3 0.12 -0.5258359599910829 18.913662994037356 43.76187702624307 0 0 0
936 1 5 -0.22 -0.6569692546653448 4.41042198990239 50.998139567780136 0 0 0
933 1 3 0.215 -0.3939913268741107 5.6083303036175725 51.264177089572215 0 0 0
942 1 7 0.28 -0.5336787462156863 5.350205388927269 53.24706864193587 0 0 0
935 1 4 -0.665 -0.3158060960953714 6.038268942588249 52.49796809224728 0 0 0
938 1 5 -0.28 -0.20896876484940927 7.864275694348618 50.43094359838197 0 0 0
930 1 2 0.14 -0.36426010203771686 6.5358866508921265 50.24852984113133 0 0 0
857 1 12 -0.85 -0.618390519083643 18.521673542671003 52.674280611264 0 0 0
848 1 8 0.05 -0.3600051921636701 21.673769482633414 55.62748119576404 0 0 0
855 1 11 1.4 -0.983316945337917 19.906672986133295 52.14324682573116 0 0 0
854 1 10 -0.5 -1.1536836612469668 20.864867388682715 53.39169521986839 0 0 0
856 1 12 -0.85 -2.2931100328180483 19.838159300430377 51.31323056261672 0 0 0
860 1 6 0.1 -1.2569672292292116 22.935880844905316 54.201253183766184 0 0 0
849 1 8 0.05 -0.7547408285264271 23.047680391918174 55.15804600312406 0 0 0
825 1 12 -0.85 -3.963746153755971 23.998067474621788 55.89208342250123 0 0 0
826 1 10 -0.5 -1.479114035933836 23.810361127891156 56.137345107740295 0 0 0
823 1 11 1.4 -2.6563947778230594 24.743880790654956 55.61793517933003 0 0 0
859 1 6 0.1 -1.139142824875947 21.050935771847065 56.137775675660784 0 0 0
805 1 3 0.215 -8.440405995396073 28.15006293413167 55.376339746835924 0 0 0
807 1 4 -0.665 -9.749776495289932 28.31622960488441 55.353387410814705 0 0 0
814 1 7 0.28 -10.018951310585447 28.510795514736223 54.412621473629514 0 0 0
808 1 5 -0.22 -7.759060391928461 27.96805457492253 54.3675247080093 0 0 0
806 1 3 0.12 -6.548482006104439 27.725773108638045 54.569459420749425 0 0 0
815 1 7 0.28 -10.263188028900256 28.50194237867454 56.24815714232336 0 0 0
824 1 12 -0.85 -2.4402765074499126 25.0267106330638 54.111208761008236 0 0 0
809 1 5 -0.25 -5.801116830043324 27.82998134055004 55.572574786519084 0 0 0
813 1 6 0.1 -5.981632995195062 27.486160510449803 53.71102881204947 0 0 0
802 1 2 0.14 -7.8486224548923635 28.195107378616303 56.574405440197715 0 0 0
810 1 5 -0.28 -8.51211585541958 28.39273988844653 57.77494964743634 0 0 0
812 1 6 0.13 -7.577269058120358 28.26841984899592 59.57827467637159 0 0 0
804 1 2 0.15 -7.395482743008221 28.24592901775432 58.514885361968894 0 0 0
803 1 2 0.28 -6.459236933859028 27.994363646431367 56.7144849152874 0 0 0
793 1 12 -0.85 -0.1905395903563439 28.50290167920191 60.79370805969485 0 0 0
833 1 6 0.1 -1.6480338380339505 25.548939361122475 58.03801205723602 0 0 0
828 1 6 0.1 -2.67818458333836 26.149801153637036 60.105153982288 0 0 0
811 1 5 -0.39 -6.103181770327657 28.17549448495642 58.04078101076859 0 0 0
832 1 6 0.1 -3.3478762694840047 25.38348934382549 58.28440734752506 0 0 0
817 1 8 0.05 -3.121065168850309 27.11966020399394 59.92406699160747 0 0 0
821 1 9 -0.05 -2.6360666739216576 26.028028013066606 57.85756908758379 0 0 0
820 1 10 -0.3 -3.735455288031112 28.20642791422509 57.87466163022656 0 0 0
816 1 8 0.05 -2.7274519450178407 27.434670876317004 58.51541069917877 0 0 0
822 1 10 -0.5 -2.6249194456047666 26.140422014780892 56.44156393103661 0 0 0
827 1 6 0.1 -1.711649051129044 27.925812801020772 58.60816381199769 0 0 0
794 1 10 -0.5 -2.782244790518239 28.19708242363599 60.831294498645434 0 0 0
818 1 9 -0.2 -4.6355315291473955 27.115264614721067 59.78309821034381 0 0 0
819 1 8 0.16 -4.8622211722261985 28.24721450878582 58.817822844462114 0 0 0
829 1 6 0.1 -5.253960701373107 27.214909474587312 60.69397709821591 0 0 0
830 1 6 0.1 -4.977852440704408 26.244432164334793 59.290308431058506 0 0 0
831 1 6 0.1 -4.770370761697096 29.136979971332043 59.431838658893355 0 0 0
791 1 11 1.4 -1.4108581569115068 28.109424813554526 61.69045216324656 0 0 0
792 1 12 -0.85 -1.2321487774982465 26.63696068180528 62.07420813712037 0 0 0
784 1 8 0.05 -0.6807358019459955 28.262442663854408 65.06258700020575 0 0 0
789 1 9 -0.05 -0.4802520985204931 29.21092401115214 63.864566980370086 0 0 0
790 1 10 -0.5 -1.549188632147292 29.067665177431934 62.910301945365426 0 0 0
795 1 6 0.1 -1.5398238881860562 28.562756432053614 65.70208915448552 0 0 0
788 1 10 -0.3 -0.7744414274808651 26.873310947746454 64.66225784795486 0 0 0
801 1 6 0.1 -0.2976732653692267 30.249784944882364 64.07120230083117 0 0 0
799 1 6 0.1 -0.09078236699960465 25.314333542910454 65.7043882879416 0 0 0
763 1 6 0.1 -0.04535271000962431 29.55012624855108 72.35082657113763 0 0 0
718 1 7 0.28 -4.4028333660347805 25.249025738888253 73.171584461014 0 0 0
709 1 3 0.215 -3.480709108867709 26.411411543663807 74.43058661542095 0 0 0
712 1 5 -0.22 -2.3554521940147612 26.198190958955994 73.89978756912221 0 0 0
710 1 3 0.12 -1.2977727637906262 26.602151621784284 74.44925873856428 0 0 0
711 1 4 -0.665 -4.550592759200435 25.847887133546433 73.9802090613666 0 0 0
719 1 7 0.28 -5.439487360072676 25.99892335634846 74.27676778375033 0 0 0
717 1 6 0.1 -0.47166134811555105 26.507638525369966 73.83558619035222 0 0 0
706 1 2 0.14 -3.467932265704645 27.075339029637032 75.55341241422411 0 0 0
724 1 10 -0.3 -0.8138793148953273 29.477390221156174 77.7102800003516 0 0 0
716 1 6 0.13 -4.547078969184462 28.272600768818165 78.22836106456529 0 0 0
714 1 5 -0.28 -4.572300933994615 27.289921331341755 76.341548647843 0 0 0
723 1 8 0.16 -1.5811802613023902 28.530532579240433 78.42090409511557 0 0 0
707 1 2 0.28 -2.2584102508674806 27.389433008035088 76.2344848614765 0 0 0
708 1 2 0.15 -3.9356899066126103 27.838426558243572 77.44449515246536 0 0 0
734 1 6 0.1 -0.40782540459492417 26.664493143320257 78.07822976420209 0 0 0
713 1 5 -0.25 -1.1322412860995286 27.170434604586305 75.58301481430361 0 0 0
722 1 9 -0.2 -0.6222540977617235 27.510573792704605 78.83714154421168 0 0 0
735 1 6 0.1 -2.1311869955216993 29.011633148514736 79.27718460831014 0 0 0
715 1 5 -0.39 -2.5538693102554446 27.97022716685028 77.45840749198516 0 0 0
733 1 6 0.1 -0.9731245568885929 27.036760321086778 79.75121331805491 0 0 0
1684 0 15 1.0 -235.46363027666877 26.78251317589808 86.57985427040224 2 0 0
1648 0 15 1.0 -124.84597549628859 235.20619649944152 468.4970509982474 -5 2 2
1678 0 15 1.0 -246.85526806738494 481.72750580545966 -199.5071284875491 3 1 -2
1652 0 15 1.0 -157.1735343954054 276.1960587790714 -177.45399733036876 -2 0 -1
1654 0 15 1.0 -67.85719834966085 298.65383855590164 -176.30806181782168 -2 4 -2
1668 0 15 1.0 -58.05886460861016 381.414924005406 168.60726386632243 -2 0 2
1686 0 15 1.0 -183.1118304964407 463.9284828490213 178.66146686287496 2 -3 1
1677 0 15 1.0 -68.48383705294799 408.1371540868173 229.77560161400336 -1 -3 -1
1660 0 15 1.0 136.8636972672678 -451.9782953952731 -391.1239946699504 1 -2 -1
1664 0 15 1.0 155.96397452366998 -393.05563389419734 -340.5506805704301 1 0 -1
1657 0 15 1.0 350.6553276464458 -257.80926618443397 -212.67313582839105 -4 -1 0
1676 0 15 1.0 427.21111986257154 -402.0256471377912 -104.41905741315912 0 0 -1
1642 0 15 1.0 55.36609358410262 -429.4828125334563 68.64399227560384 2 0 4
1640 0 15 1.0 488.40573475335344 -388.70183381360556 295.9321988006805 -2 1 2
1651 0 15 1.0 92.46396369089088 -269.26146562610114 443.8485268927149 -1 2 -1
1680 0 15 1.0 172.71905159086404 -259.4450215213018 497.2839050467029 0 2 1
1685 0 15 1.0 494.1903965296194 -242.00065547674177 -295.21588881167105 -5 -1 -3
1666 0 15 1.0 10.505604859538293 -126.04525670419198 -276.10120890407825 2 -1 1
1650 0 15 1.0 177.6441770670307 -218.32331325090598 -208.7175828598268 1 1 -3
1637 0 15 1.0 94.03778202101515 -82.76798664698588 -28.351569536646537 -3 3 -2
1671 0 15 1.0 13.88772156709951 -1.3906212351036125 56.348633841273674 -1 0 -1
37 1 3 0.215 90.6440924553188 -2.711104747979452 92.01537180006157 0 0 0
40 1 5 -0.22 89.99711479158678 -1.6666111672864388 91.61719760251658 0 0 0
34 1 2 0.14 90.61875314385584 -3.0381817342726416 93.32428212046007 0 0 0
39 1 4 -0.665 91.16763215387981 -3.5406938280526985 91.15445565239969 0 0 0
47 1 7 0.28 91.6889781222853 -4.37900767346345 91.38802996550481 0 0 0
46 1 7 0.28 91.01862892424316 -3.2323370241590883 90.21898405513191 0 0 0
38 1 3 0.12 89.52988699975076 -0.9766935400772948 92.51368130376028 0 0 0
45 1 6 0.1 88.93255642368679 -0.16781149160781547 92.09669556002086 0 0 0
206 1 7 0.28 68.20339800881794 -3.040590630402083 97.88208627785481 0 0 0
197 1 3 0.215 68.61749230296346 -1.3518267740652254 98.85877743899881 0 0 0
200 1 5 -0.22 67.35799928768172 -1.1116576421756432 99.22667689608059 0 0 0
199 1 4 -0.665 68.94070006486608 -2.353741360969034 98.03679771222122 0 0 0
207 1 7 0.28 69.90420232974569 -2.4724150849851694 97.75641661390038 0 0 0
194 1 2 0.14 69.54972693528967 -0.4145736501277974 99.17425195596043 0 0 0
202 1 5 -0.28 70.85775053145706 -0.5953950398117315 98.83828248959644 0 0 0
41 1 5 -0.25 89.44796973956205 -1.1293071177561407 93.77470379510648 0 0 0
42 1 5 -0.28 91.38549443127167 -4.029480870956226 93.8843754027365 0 0 0
35 1 2 0.28 90.12808231001334 -2.2226954385762174 94.27407501464334 0 0 0
44 1 6 0.13 91.65491060850252 -4.187199514954636 96.11454983374914 0 0 0
36 1 2 0.15 91.19736361150764 -3.6859953415618207 95.25039708328922 0 0 0
52 1 10 -0.3 89.53448252369303 -0.7668251596443144 96.72854387453457 0 0 0
51 1 8 0.16 90.08344826243042 -2.038556925939036 96.79794064630124 0 0 0
63 1 6 0.1 89.31796351107872 -2.6301479772137015 97.38732103722383 0 0 0
43 1 5 -0.39 90.44860699870976 -2.6547202600761226 95.5341781783543 0 0 0
26 1 10 -0.5 89.74359360977661 -1.788206079007303 99.47058910758003 0 0 0
49 1 8 0.05 90.66138474528152 -1.0250245910826175 98.73052464608041 0 0 0
50 1 9 -0.2 91.27912368897535 -1.9505569744296782 97.70263023524402 0 0 0
61 1 6 0.1 91.56559803521827 -2.9432611505698723 98.16291137540291 0 0 0
62 1 6 0.1 92.15283931457083 -1.4179457714110852 97.30382780586808 0 0 0
60 1 6 0.1 91.4836817719968 -0.4643652915714636 99.35955142096893 0 0 0
48 1 8 0.05 89.86726810591604 -0.03154302546998446 97.84611511825729 0 0 0
205 1 6 0.1 66.21189978465247 -0.19924175017067475 100.5877218585603 0 0 0
198 1 3 0.12 67.21935691977815 -0.2849567172534341 100.20053736221735 0 0 0
1 1 1 -0.38 84.1898676052338 -0.3750585136584142 103.82534628487801 0 0 0
31 1 6 0.1 86.35132137106184 -1.5794790375746455 105.40824240669455 0 0 0
20 1 10 -0.3 86.98869806106015 -1.3407212533581163 103.29143967761874 0 0 0
27 1 6 0.1 85.38635303104512 -1.0100017325669666 101.93232240384556 0 0 0
19 1 8 0.16 86.98546969579762 -0.99776922354225 104.70615293820488 0 0 0
16 1 8 0.05 86.16558465678743 -0.45953236882321497 102.53653667168633 0 0 0
1635 1 14 0.19 83.86675862088777 -0.2312615643676192 104.68337604685605 0 0 0
12 1 6 0.13 89.5279817446221 -0.277638367421683 103.58908000335299 0 0 0
10 1 5 -0.28 90.70209757767563 -0.5660939743864608 105.24583006023077 0 0 0
22 1 10 -0.5 87.71969808156821 -0.671691267371882 100.7756874440845 0 0 0
24 1 12 -0.85 89.04242355758552 -2.630153476775866 101.74724681686462 0 0 0
23 1 11 1.4 89.16419058766914 -1.3166640041890674 100.91754197329907 0 0 0
11 1 5 -0.39 88.38044894504604 -0.9209750970365931 105.2787776835898 0 0 0
25 1 12 -0.85 90.11644773163083 -0.4059904162877629 101.65837797827665 0 0 0
4 1 2 0.15 89.51047757325487 -0.5959293700332219 104.58862621933113 0 0 0
3 1 2 0.28 88.8894520721795 -0.9469256729682692 106.55391239105896 0 0 0
13 1 6 0.1 88.55554859577146 -1.2751512412578914 109.642517297893 0 0 0
6 1 3 0.12 89.0213611856594 -1.0526418723361421 108.72868869139404 0 0 0
9 1 5 -0.25 88.21356943069618 -1.0838970808999946 107.75613928252181 0 0 0
2 1 2 0.14 90.21366955491413 -0.7214361166074906 106.54085220475407 0 0 0
5 1 3 0.215 90.82217246970872 -0.4420147341731351 107.70830405990381 0 0 0
8 1 5 -0.22 90.21891108663041 -0.6847890434953395 108.75789204518084 0 0 0
1643 0 15 1.0 63.193177943329786 -175.3394221489655 163.39345197905644 4 3 0
1645 0 15 1.0 437.18564959421684 -3.4022434509430752 244.00911010618802 -1 -3 1
1638 0 15 1.0 251.36432899100816 -8.452208537924857 264.4394607504173 1 -1 1
1661 0 15 1.0 166.249926119742 -168.49335580623188 285.0495891248731 -2 0 3
1683 0 15 1.0 337.9231593433961 207.79882234248203 -442.0549434372617 -1 -1 3
1655 0 15 1.0 93.99768181851816 162.41325029064245 -370.9054589991386 -1 3 0
1656 0 15 1.0 350.8495200984965 42.04999374301984 -54.907712066914804 0 0 1
1389 1 6 0.1 46.72096311319691 44.35370795778555 -2.5070078176448862 0 0 0
1384 1 5 -0.22 48.26632819646882 45.30338732032581 -2.9632787459512198 0 0 0
1382 1 3 0.12 47.37276135402 45.086783605210975 -2.0980669383772668 0 0 0
1378 1 2 0.14 49.01034909906807 46.8036459752111 -1.4373852587093106 0 0 0
1381 1 3 0.215 49.04576228475984 46.24440812408059 -2.608129423209417 0 0 0
1385 1 5 -0.25 47.144187738558806 45.633382123160175 -0.9168853262826145 0 0 0
1379 1 2 0.28 48.0999517645244 46.46316075236867 -0.4812218766912116 0 0 0
1383 1 4 -0.665 49.960343735250504 46.684380358213794 -3.4842607298753774 0 0 0
1386 1 5 -0.28 49.847474291722136 47.90431619676462 -1.0785200490060645 0 0 0
1390 1 7 0.28 50.04469090281257 46.130007189487344 -4.34530100605011 0 0 0
1391 1 7 0.28 50.7148205281806 47.29498220787524 -3.1594829376999973 0 0 0
1196 1 6 0.13 19.29655440863428 30.87681106160692 5.881043182609748 0 0 0
1364 1 10 -0.3 41.756481862324385 43.21646660346095 5.7700257779835535 0 0 0
1356 1 6 0.13 44.26972306766425 43.18118862163037 4.280945555316228 0 0 0
1358 1 7 0.28 48.61391783081849 39.137658179953235 5.123454723203463 0 0 0
1355 1 5 -0.39 43.91117282989096 42.00548628292266 5.964468663912161 0 0 0
1348 1 2 0.15 44.566434017899766 42.28334356620639 4.7971550386341395 0 0 0
1351 1 4 -0.665 47.730413616757644 39.63606589714865 4.811348813018651 0 0 0
1359 1 7 0.28 47.63803821362046 40.20797025327184 3.931169253687227 0 0 0
1354 1 5 -0.28 45.65422216013554 41.511150893028166 4.215001192606175 0 0 0
1346 1 2 0.14 45.70657635109834 40.67324311360863 5.371170307397369 0 0 0
1349 1 3 0.215 46.68143585638426 39.750235097049206 5.609734973431985 0 0 0
1360 1 8 0.05 41.39654125254175 44.55929556432789 6.118759314391957 0 0 0
1377 1 6 0.1 41.23486402464415 45.60624620736094 4.155881840689709 0 0 0
1365 1 9 -0.05 41.80005320293436 45.628090186077415 5.14558033208119 0 0 0
1376 1 6 0.1 41.53219039214847 46.56818417240478 5.6106271254895095 0 0 0
1366 1 10 -0.5 43.19760182807659 45.618856657085665 4.8077047712947945 0 0 0
1368 1 12 -0.85 42.69260418552647 47.514704222090465 3.0527520785897857 0 0 0
1367 1 11 1.4 43.7387285990697 46.42319907527946 3.499428159710301 0 0 0
1369 1 12 -0.85 43.79012873199311 45.38693789172591 2.3265985118802615 0 0 0
1408 1 6 0.1 48.78411631261867 45.03785189185455 3.9465380309197524 0 0 0
1398 1 10 -0.5 49.56578234655053 46.25557683004785 5.430461041170936 0 0 0
1397 1 9 -0.05 48.41119589444532 45.737740947273345 4.716031216594857 0 0 0
1404 1 6 0.1 46.146202553126365 45.20386070973566 3.810186919927096 0 0 0
1405 1 6 0.1 45.71140140236516 46.232534579351395 1.160927258741449 0 0 0
1407 1 6 0.1 46.924973479530095 48.3195426044416 1.6277814222905396 0 0 0
1395 1 8 0.16 47.47248343669909 47.3803592031782 1.74895570773041 0 0 0
1406 1 6 0.1 47.12516557746018 45.19136969363822 1.7295486710118302 0 0 0
1394 1 9 -0.2 46.57913041548919 46.130029464959875 1.8975072527696861 0 0 0
1370 1 10 -0.5 45.224829383255326 47.07083824131696 3.6357798283692158 0 0 0
1393 1 8 0.05 46.34072650217582 46.24422892313765 3.4386988221182264 0 0 0
1392 1 8 0.05 47.5733444943827 46.87803902609735 4.085071698968236 0 0 0
1396 1 10 -0.3 48.327796776387686 47.499103425554225 3.014279817186464 0 0 0
1403 1 6 0.1 47.232754410628225 47.594054189391414 4.8105975706124156 0 0 0
1387 1 5 -0.39 48.3295618778975 47.25137413403137 0.6200192941705231 0 0 0
1380 1 2 0.15 49.365627446035596 48.0508100618791 0.1844159776078467 0 0 0
1388 1 6 0.13 49.76942346075821 48.69544636531787 0.9540055927347109 0 0 0
1409 1 6 0.1 47.74119635163118 45.17190862821578 5.4449093953301135 0 0 0
1400 1 12 -0.85 51.107452296168766 44.276838866177854 5.006818908125538 0 0 0
1399 1 11 1.4 50.574761556733414 45.205171982286544 6.098863675543314 0 0 0
1436 1 6 0.1 52.607942617305575 46.14365951121268 4.756089342115852 0 0 0
1425 1 8 0.05 52.757278420311565 46.646593814223486 5.753381312672363 0 0 0
1440 1 6 0.1 55.18953523506269 46.21329457475165 4.525423879863587 0 0 0
1438 1 6 0.1 51.87861022566235 48.45064694142232 4.4674653113717016 0 0 0
1426 1 9 -0.2 52.17715650625654 48.09677070947179 5.4701597496309535 0 0 0
1437 1 6 0.1 51.27949290479132 48.220796295366995 6.099986527553007 0 0 0
1427 1 8 0.16 53.26061970463569 49.07162221657129 5.992436201099261 0 0 0
1441 1 6 0.1 54.92560162039489 44.926452934873865 5.688446948679872 0 0 0
1429 1 9 -0.05 55.211141628282576 45.97379475087633 5.609139284713725 0 0 0
1428 1 10 -0.3 54.486249467411334 48.31042777723763 5.923338902064347 0 0 0
1432 1 12 -0.85 57.2036500414074 48.130342404378176 4.6171621005073 0 0 0
1430 1 10 -0.5 56.57253244276412 46.08226182702367 6.103278641052576 0 0 0
1431 1 11 1.4 57.34552796074223 47.501671601875 6.040407159204258 0 0 0
1420 1 6 0.13 54.2892262168288 50.100948534872764 3.409985616711259 0 0 0
1412 1 2 0.15 53.95410320793915 50.806725556784855 4.138510104928441 0 0 0
1419 1 5 -0.39 53.34615729125715 50.39595327908137 5.298695176641588 0 0 0
1418 1 5 -0.28 54.12000712949278 52.126680576546676 3.7913482047696343 0 0 0
1410 1 2 0.14 53.48232043156751 52.69112922345204 4.924982196801497 0 0 0
1411 1 2 0.28 53.09718809054083 51.6799977150356 5.803190821984329 0 0 0
1413 1 3 0.215 53.416710671628415 53.92952164474543 5.230781545504068 0 0 0
1423 1 7 0.28 54.05725617259123 54.63053131059451 3.5538401577168592 0 0 0
1415 1 4 -0.665 53.942286822008384 54.897623798405895 4.487522648062799 0 0 0
1422 1 7 0.28 53.547819044646076 55.837496643721 4.820271163777053 0 0 0
1187 1 2 0.28 18.55850996238062 30.17675908598479 8.856247997554991 0 0 0
1192 1 5 -0.22 18.413372568943526 27.88052038153792 10.137483642198095 0 0 0
1190 1 3 0.12 18.167216920566947 28.99343975609305 10.666512443896561 0 0 0
1193 1 5 -0.25 18.189977435239356 30.145820437077457 10.16732943490896 0 0 0
1195 1 5 -0.39 18.667250952812196 31.129075388003645 7.882381972004397 0 0 0
1197 1 6 0.1 17.822120310168014 28.99286217302494 11.71431197092366 0 0 0
1194 1 5 -0.28 19.255948468836664 29.07106297343204 6.981447847665495 0 0 0
1188 1 2 0.15 18.988963072193314 30.37312325325161 6.785213750055099 0 0 0
1199 1 7 0.28 19.55076345586865 26.82218113257727 7.430328711270881 0 0 0
1186 1 2 0.14 18.80699017298253 28.992686276501473 8.250244443933775 0 0 0
1198 1 7 0.28 19.16028742135209 25.827716245321596 8.856619381181618 0 0 0
1191 1 4 -0.665 19.14505129765338 26.74635430624972 8.341475374713182 0 0 0
1189 1 3 0.215 18.804909901546043 27.857642189800902 8.96394705141988 0 0 0
1261 1 6 0.1 29.700093399005894 30.91624092412612 11.736183152624339 0 0 0
1256 1 5 -0.22 31.500404551181166 30.476957073713944 12.334701136402803 0 0 0
1215 1 6 0.1 17.879625512266646 32.9075480145871 6.952501599690718 0 0 0
1203 1 8 0.16 18.439645322599155 32.57142004191185 7.923710039060751 0 0 0
1214 1 6 0.1 17.148492921134665 32.44807253436938 9.877092723264973 0 0 0
1202 1 9 -0.2 17.6817790549499 33.107757718431714 9.147956001260624 0 0 0
1213 1 6 0.1 16.77140563245668 33.710733896876334 8.851862797050002 0 0 0
1177 1 12 -0.85 15.538527556818163 34.74021242138057 10.471310541256747 0 0 0
1175 1 11 1.4 16.792102504486405 35.35409538291857 11.149611873388343 0 0 0
1178 1 10 -0.5 17.95725369990832 35.30736718951757 10.132208733269659 0 0 0
1201 1 8 0.05 18.65689088359247 34.16687035659123 9.695292644850944 0 0 0
1176 1 12 -0.85 16.491351481576043 36.80129038975396 11.460460020423621 0 0 0
1212 1 6 0.1 19.292003652319657 33.767422167010864 10.462761940985963 0 0 0
1200 1 8 0.05 19.47039591041254 34.531190560954535 8.43402381848931 0 0 0
1211 1 6 0.1 18.858110807122642 35.18237331770465 7.730685745663543 0 0 0
1204 1 10 -0.3 19.68808033266379 33.28420247339324 7.7863651626035635 0 0 0
1216 1 6 0.1 21.396873337023536 35.330816749812705 7.984057698217914 0 0 0
1205 1 9 -0.05 20.76451070481993 35.146078003633214 8.90233416985839 0 0 0
1206 1 10 -0.5 20.557570343809676 36.45059473081731 9.357783150599936 0 0 0
1207 1 11 1.4 21.759845352541003 37.39368038499085 9.832005360264437 0 0 0
1217 1 6 0.1 21.30824750355649 34.44851018274143 9.586426987694828 0 0 0
1210 1 10 -0.5 22.55953045644212 36.73554357294929 11.155940137210209 0 0 0
1233 1 8 0.05 23.59226725015521 37.39145762100039 11.8612396254091 0 0 0
1232 1 8 0.05 24.970554162256164 37.02684783896532 11.35009469260526 0 0 0
1243 1 6 0.1 24.98796438613144 36.8590142064343 10.246901472549213 0 0 0
1254 1 3 0.12 30.645589251952835 31.33370125997629 11.980105007060672 0 0 0
1277 1 6 0.1 29.888265029882653 35.46249765248544 11.686794546971708 0 0 0
1236 1 10 -0.3 25.240542669071605 35.750901437993875 12.042953215018189 0 0 0
1257 1 5 -0.25 30.65540312394013 32.60920391193184 11.882698810040043 0 0 0
1266 1 9 -0.2 30.692576770317913 35.938556985719686 12.147756951948384 0 0 0
1265 1 8 0.05 30.65917570513843 37.4561841086926 11.885328041823673 0 0 0
1279 1 6 0.1 31.77681711151203 35.4735732483248 10.260667161805733 0 0 0
1267 1 8 0.16 31.988037152079578 35.57105907786577 11.397048231685465 0 0 0
1268 1 10 -0.3 32.84478294849982 36.70922690751599 11.56709890730392 0 0 0
1251 1 2 0.28 31.931744717088463 33.07874166421592 11.964016449023816 0 0 0
1259 1 5 -0.39 32.52341450352174 34.31668665388458 11.845545497440813 0 0 0
1250 1 2 0.14 32.89867122817622 32.198733591789825 12.43364891656309 0 0 0
1252 1 2 0.15 33.86584449342107 33.96393799773299 12.17019356367311 0 0 0
1260 1 6 0.13 34.51686852874734 34.768164542284715 12.184609187959584 0 0 0
1551 1 7 0.28 56.404914425391944 37.03483566337354 10.641919977464333 0 0 0
1209 1 12 -0.85 22.64086617528518 37.674631874224524 8.67664452723784 0 0 0
1208 1 12 -0.85 21.159944906658918 38.74240860252856 10.23413339963424 0 0 0
1244 1 6 0.1 23.466063414641102 38.50213821587489 11.859928925734218 0 0 0
1238 1 10 -0.5 27.380005613830782 37.61682723337773 11.57166783096194 0 0 0
1237 1 9 -0.05 26.03238789820872 38.18687660798431 11.665683025142876 0 0 0
1249 1 6 0.1 25.860866270667415 38.985550277166915 10.887062828034555 0 0 0
1242 1 10 -0.5 29.902795638065335 37.585787800040144 10.698699281433974 0 0 0
1241 1 12 -0.85 28.07421821715288 38.73996038412918 9.326837141779677 0 0 0
1239 1 11 1.4 28.495130836021062 38.41837965796578 10.765510324319413 0 0 0
1240 1 12 -0.85 28.826517979570554 39.686811193027744 11.499806928516817 0 0 0
1275 1 6 0.1 32.1401527268446 38.44183327627088 10.599929490682081 0 0 0
1264 1 8 0.05 32.124066745457014 37.88871183774843 11.569673447128144 0 0 0
1280 1 6 0.1 33.812542709272186 39.01830593253125 12.379927340710273 0 0 0
1363 1 8 0.16 42.83762265876131 42.764680217640766 6.622397628375043 0 0 0
1375 1 6 0.1 42.29558843411425 42.07904973083137 7.301810864318293 0 0 0
1373 1 6 0.1 43.60007906741411 43.74290334189052 8.492077730283514 0 0 0
1347 1 2 0.28 44.660668327482064 40.86085367278172 6.29529654339305 0 0 0
1352 1 5 -0.22 46.65998880559279 39.02948873206847 6.619210817127832 0 0 0
1357 1 6 0.1 45.509193294080745 38.33597796273405 8.079121146466965 0 0 0
1353 1 5 -0.25 44.67799577723598 40.00099594591351 7.367059416110218 0 0 0
1350 1 3 0.12 45.639576572457194 39.17198469738895 7.4018086626495 0 0 0
1519 1 7 0.28 52.880754855828144 41.00211184371568 9.3885859286465 0 0 0
1514 1 5 -0.28 52.970322673424654 41.71540683102581 11.6945629616003 0 0 0
1511 1 4 -0.665 53.67625913129187 41.452450614635794 9.028467090422108 0 0 0
1518 1 7 0.28 53.9929228129479 41.52185331314969 8.018499724030656 0 0 0
1506 1 2 0.14 53.65834744672064 42.6546557332538 10.964559702643932 0 0 0
1509 1 3 0.215 54.06981369677064 42.52853303764881 9.698800463532306 0 0 0
1512 1 5 -0.22 54.90920143055965 43.38339866855347 9.210991200363809 0 0 0
1507 1 2 0.28 54.207022231599524 43.59105990328052 11.774971761578648 0 0 0
1543 1 4 -0.665 56.6522090751502 38.00105620591206 10.284282309008042 0 0 0
1550 1 7 0.28 56.79137976176379 38.28450215887904 9.298504922571066 0 0 0
1541 1 3 0.215 56.647858440780055 38.99268546459451 11.187714551461836 0 0 0
1544 1 5 -0.22 56.798341563203934 40.18696324014932 10.825310857686064 0 0 0