LAMMPS data file via write_data, version 21 Jul 2020, timestep = 2000000

7396 atoms
16 atom types
1787 bonds
20 bond types
3214 angles
42 angle types
4692 dihedrals
67 dihedral types
357 impropers
7 improper types

-500.0 500.0 xlo xhi
-500.0 500.0 ylo yhi
-500.0 500.0 zlo zhi

Masses

1 15.9994
2 12.0112
3 12.0112
4 14.0067
5 14.0067
6 1.00797
7 1.00797
8 12.0112
9 12.0112
10 15.9994
11 30.9738
12 32.064
13 1.00797
14 22.99
15 65.38
16 32.06

Pair Coeffs # lj/cut/coul/long

1 0.0228 2.85978
2 0.0148 3.61705
3 0.0148 3.61705
4 0.0167 3.50123
5 0.0167 3.50123
6 0.0038 2.44997
7 0 0
8 0.0039 3.87541
9 0.0039 3.87541
10 0.0228 2.85978
11 0.0199998 3.74178
12 0.00429759 3.36775
13 0 0
14 0.160714 1.89744
15 35.7426 0.02
16 0.0327669 4.9

Bond Coeffs # harmonic

1 384 1.42
2 540.634 0.96
3 280 1.39
4 280 1.34
5 320 1.38
6 363.416 1.08
7 388 1.32
8 560 1.26
9 363.416 1.08
10 457.459 1.026
11 336.8 1.475
12 322.716 1.526
13 273.2 1.425
14 322.716 1.526
15 340.618 1.105
16 340.618 1.105
17 273.2 1.425
18 245.2 1.61
19 147.12 2.05275
20 300 1.57

Angle Coeffs # harmonic

1 58.5 106
2 90 120
3 90 120
4 90 120
5 102 134
6 40 120
7 102 120
8 90 120
9 102 120
10 102 134
11 50 120
12 37.5 115
13 33 125
14 75.1 114
15 75.1 114
16 75.1 114
17 70 128.8
18 70 109.5
19 46.6 110.5
20 44.4 110
21 70 109.5
22 57 109.5
23 44.4 110
24 70 109.5
25 70 109.5
26 57 109.5
27 46.6 110.5
28 44.4 110
29 39.5 106.4
30 80 109.5
31 80 109.5
32 80 109.5
33 60 109.5
34 70 109.5
35 57 109.5
36 72 120
37 110 109.5
38 110 109.5
39 72 120
40 110 109.5
41 110 109.5
42 50 112

Dihedral Coeffs # harmonic

1 0.13 1 3
2 0.13 1 3
3 0.13 1 3
4 3 -1 2
5 3 -1 2
6 3 -1 2
7 3 -1 2
8 3 -1 2
9 3 -1 2
10 2 -1 2
11 2 -1 2
12 2 -1 2
13 2 -1 2
14 2 -1 2
15 2 -1 2
16 2 -1 2
17 2 -1 2
18 2 -1 2
19 2.5 -1 2
20 2.5 -1 2
21 2 -1 2
22 2 -1 2
23 2 -1 2
24 2 -1 2
25 2 -1 2
26 2 -1 2
27 0.1 1 3
28 0.1 1 3
29 0.1 1 3
30 0.1581 1 3
31 0.1581 1 3
32 0.1581 1 3
33 0.1581 1 3
34 0.1581 1 3
35 0.1581 1 3
36 0.1581 1 3
37 0.1581 1 3
38 0.13 1 3
39 0.13 1 3
40 0.13 1 3
41 0.1581 1 3
42 0.1581 1 3
43 0.1581 1 3
44 0.1581 1 3
45 0.1581 1 3
46 0.1581 1 3
47 0.1581 1 3
48 0.1581 1 3
49 0.1581 1 3
50 0.1581 1 3
51 0.1581 1 3
52 0.1581 1 3
53 0.1581 1 3
54 0.13 1 3
55 0.13 1 3
56 0.13 1 3
57 0.25 1 3
58 0.25 1 3
59 0.25 1 3
60 0.25 1 3
61 0.13 1 3
62 0.13 1 3
63 0.13 1 3
64 0.1581 1 3
65 0.25 1 3
66 0.25 1 3
67 0.25 1 3

Improper Coeffs # cvff

1 0.37 -1 2
2 0.37 -1 2
3 0.37 -1 2
4 0.37 -1 2
5 0.37 -1 2
6 0.37 -1 2
7 0.37 -1 2

Atoms # full

1660 0 14 1.0 -227.26061622770098 -496.8249471012904 -456.2141826276319 -3 -2 0
1653 0 14 1.0 -186.66731490500587 -445.51855193062516 -392.6747834640413 3 -1 1
1666 0 14 1.0 -68.90389935836656 -252.09205671683608 -305.52908671682104 2 0 0
1672 0 14 1.0 -1.1727154727240716 -395.80515445363636 -195.2379778774552 -2 1 -1
1664 0 14 1.0 -370.3863346611036 -459.97472439972785 -87.52628155063567 -1 0 -1
1663 0 14 1.0 -138.3875545600358 -399.0426141840319 -11.936961591920495 1 0 -2
1636 0 14 1.0 -417.8339528044519 -447.1721179753167 70.76290618852128 -2 0 -1
1679 0 14 1.0 -76.82358274159643 -323.94016870343034 128.5238774349862 1 2 2
1637 0 14 1.0 -112.03763716263595 -480.079343788888 210.9083226324307 -2 0 1
1659 0 14 1.0 -150.64606270047193 -349.8519621581226 234.98978614500442 2 2 3
1647 0 14 1.0 -81.23790140418255 -37.02923539217412 -80.0226945101487 2 2 -3
1652 0 14 1.0 -379.8323653304909 -198.00342512810784 383.80507261555823 -1 2 1
1683 0 14 1.0 -168.67118134813768 43.57990101015435 -497.46960157503986 -1 0 2
1680 0 14 1.0 -377.7152420104102 182.47614086838456 -306.71865841165686 0 1 0
1646 0 14 1.0 -229.22063007672662 23.74145759327733 139.44823144840268 -2 -2 -2
1654 0 14 1.0 -485.976879607404 189.73504831230042 360.6180986691996 1 0 1
1658 0 14 1.0 -481.8454846805267 319.2473341660971 -399.51899367182915 -1 -2 1
1671 0 14 1.0 -342.7797536598172 463.5186870834961 -268.4128872034948 -1 -1 -4
1642 0 14 1.0 -491.50882653639087 362.81140937463465 -179.02844749488946 2 -3 -3
1684 0 14 1.0 -471.0899789203377 399.87437379138015 -167.66732360734608 -1 -1 0
1681 0 14 1.0 -204.97818875275888 396.86002901881915 67.58330361191727 1 -1 -1
1669 0 14 1.0 -143.90526603398402 391.84038516445463 113.5733430083572 -5 -1 -2
1641 0 14 1.0 -477.50025337565876 405.814425343203 290.4601111862474 1 -3 0
1667 0 14 1.0 74.61599013362222 -461.60399568604464 -477.63904150241706 2 -2 -4
1640 0 14 1.0 77.20987542687773 -268.4866335384886 -394.0064940150221 0 1 3
1682 0 14 1.0 113.79471327344741 -490.92909983549146 -93.5465004656867 0 -3 1
1645 0 14 1.0 182.8558130023096 -303.74688023616784 181.30525083543205 -5 0 4
1668 0 14 1.0 242.98692799319568 -110.2928668686522 -353.6934670983159 0 2 0
1656 0 14 1.0 197.41101522878407 -205.48175724862503 -123.77505032317556 -3 0 0
1638 0 14 1.0 38.231195652295874 -8.277827847535875 54.13950920618066 0 -2 -2
1651 0 14 1.0 145.69866696404262 -106.22269881978895 412.3023399997701 -4 0 0
1665 0 14 1.0 494.481310173618 118.21004886339439 -121.56929942630033 -1 2 1
1198 1 7 0.28 47.41058004380232 27.115435634933522 12.477088231143275 0 0 0
1103 1 7 0.28 38.46752609546712 42.56496786746447 9.686752921016598 0 0 0
1098 1 5 -0.28 39.92441529778748 43.13729672060708 11.841791715547538 0 0 0
1095 1 4 -0.665 38.909433471191306 43.30797089407776 9.156210764274656 0 0 0
1102 1 7 0.28 38.67967641859513 43.58332603155392 8.197582940302294 0 0 0
1261 1 6 0.1 48.18712020830982 40.48514615470648 9.056546235238995 0 0 0
1257 1 5 -0.25 49.364268290388196 40.48235042759708 10.590307016293734 0 0 0
1254 1 3 0.12 49.2212651138258 40.516903702293845 9.337775029882613 0 0 0
1256 1 5 -0.22 50.02903592800607 40.63533427909075 8.341864138638583 0 0 0
1251 1 2 0.28 50.58817886969323 40.830048189903046 10.972810367936129 0 0 0
1253 1 3 0.215 51.1778960678253 41.06245340356208 8.692013790546445 0 0 0
1250 1 2 0.14 51.490694205566214 41.07174523791966 9.996719719437182 0 0 0
1255 1 4 -0.665 52.09924006700772 41.40395123592885 7.818262926829614 0 0 0
1258 1 5 -0.28 52.77156158513699 41.338486367145656 10.483337743575726 0 0 0
1263 1 7 0.28 52.783064098802896 42.03205769950562 8.20505876290449 0 0 0
1262 1 7 0.28 51.817894506900004 41.26588109665397 6.832369013537259 0 0 0
1252 1 2 0.15 52.50292799154892 41.24760023549475 11.807814433706751 0 0 0
1259 1 5 -0.39 51.2140833074994 40.96317371297894 12.209691393638296 0 0 0
1289 1 5 -0.25 55.69064544418133 43.02894099980588 11.575063095328456 0 0 0
1293 1 6 0.1 56.533087537475055 41.533738575835066 10.511471167757012 0 0 0
1286 1 3 0.12 56.32305573938216 42.558706993067226 10.562565036700956 0 0 0
1288 1 5 -0.22 56.83093054205118 43.06078439658397 9.538163910228933 0 0 0
1093 1 3 0.215 39.72008669944853 44.16307761233597 9.678851063149775 0 0 0
1101 1 6 0.1 41.597729736979225 46.34520275538012 8.561579125031031 0 0 0
1090 1 2 0.14 40.259974329860164 44.072639074175925 10.896059563689665 0 0 0
1096 1 5 -0.22 40.1309457774593 45.025405492618674 8.920563465413768 0 0 0
1091 1 2 0.28 41.09647247653531 45.092045235522434 11.378015892048506 0 0 0
1094 1 3 0.12 41.09623395127492 45.74253378681647 9.30453740843994 0 0 0
1097 1 5 -0.25 41.521834340873895 46.007470207333064 10.475804913405694 0 0 0
1064 1 5 -0.22 43.93249907469859 49.61487496124993 11.97244254612868 0 0 0
1290 1 5 -0.28 56.08146474022497 46.37133451986109 10.516985986585889 0 0 0
1283 1 2 0.28 55.715704571362224 44.38891934560864 11.61953523012806 0 0 0
1284 1 2 0.15 55.61552315628502 46.48406184280546 11.802692963305148 0 0 0
1292 1 6 0.13 55.42538619598122 47.515812895006256 12.118657110892759 0 0 0
1282 1 2 0.14 56.26563064306575 45.00916842582763 10.47751372220446 0 0 0
1285 1 3 0.215 56.82168470621833 44.30903633737254 9.49773707418958 0 0 0
1294 1 7 0.28 57.66680002200479 44.33665137832261 7.641604502484158 0 0 0
1287 1 4 -0.665 57.362040032207396 44.91229469639874 8.379553852183223 0 0 0
1295 1 7 0.28 57.331128901323 45.89234545888197 8.362897266070968 0 0 0
1066 1 5 -0.28 43.214438084551816 53.137893425607366 11.772051755960854 0 0 0
1058 1 2 0.14 43.37217780060656 51.78316182559925 12.126457864706847 0 0 0
1071 1 7 0.28 44.98151465375687 52.14109157796449 10.372891326540442 0 0 0
1070 1 7 0.28 45.53554919233424 50.38980976364652 10.3708472029474 0 0 0
1063 1 4 -0.665 44.82311785439913 51.14859731796175 10.551864107848873 0 0 0
1061 1 3 0.215 44.021099929854955 50.79037144007514 11.532727034466246 0 0 0
1031 1 4 -0.665 39.734285001688505 60.86069110395306 11.94752074993688 0 0 0
1038 1 7 0.28 40.41100534729839 60.610212126245614 11.276072088341769 0 0 0
1039 1 7 0.28 38.91855402815066 61.40098879238347 11.975184711606893 0 0 0
1389 1 6 0.1 58.5836946871235 58.77886616564173 11.442764058684247 0 0 0
1382 1 3 0.12 58.93239740639231 59.682206647344586 11.93716399700008 0 0 0
1384 1 5 -0.22 59.48867111807839 60.58465376032761 11.26037718364676 0 0 0
1319 1 4 -0.665 61.46453714130103 57.10713449149179 12.498780960361913 0 0 0
1326 1 7 0.28 62.26455962480568 57.41946871733855 11.960631052085915 0 0 0
1381 1 3 0.215 59.69968598786634 61.671170433022 11.870484736940682 0 0 0
1390 1 7 0.28 60.37058247793217 62.39563489113011 10.146876684749344 0 0 0
1383 1 4 -0.665 60.12647240570234 62.67641470452504 11.143262646150905 0 0 0
1391 1 7 0.28 60.18451359707145 63.62997390062352 11.63856520111476 0 0 0
1154 1 2 0.14 36.912089983901225 29.990976989290765 18.182645281924383 0 0 0
1167 1 7 0.28 36.42667794208586 27.76751348336308 17.384377694130936 0 0 0
1155 1 2 0.28 37.1017438077782 31.249552453669818 18.64619446726107 0 0 0
1159 1 4 -0.665 36.02560328742579 27.91680338945447 18.327290396210127 0 0 0
1162 1 5 -0.28 37.69700524322974 29.63994186873803 17.113132302822823 0 0 0
1156 1 2 0.15 38.33793824815015 30.825373925391 17.051277180104435 0 0 0
1164 1 6 0.13 39.173795176955934 30.934748299289264 16.363247857958388 0 0 0
1192 1 5 -0.22 47.781829388871095 29.57076303797427 13.085505567710747 0 0 0
1199 1 7 0.28 46.94602227130566 26.793140703634442 14.133593116049257 0 0 0
1191 1 4 -0.665 47.19567400943645 27.444530558413238 13.411742504504856 0 0 0
1186 1 2 0.14 46.65676538500332 29.13614241725944 15.010699319496942 0 0 0
1189 1 3 0.215 47.270878875454365 28.701591210080505 13.834515618943199 0 0 0
1187 1 2 0.28 46.82526838801436 30.491810505524278 15.460438072671353 0 0 0
1195 1 5 -0.39 46.3483763584074 30.62438677456627 16.77922993107549 0 0 0
1194 1 5 -0.28 46.09214664686667 28.35135888094628 16.013615298159245 0 0 0
1188 1 2 0.15 45.98956768970582 29.33130451331853 16.999933509164208 0 0 0
1196 1 6 0.13 45.77184450172099 29.026283333823812 17.978408441370675 0 0 0
1190 1 3 0.12 47.95476115114843 30.748936873107006 13.558877425337036 0 0 0
1214 1 6 0.1 44.5433809573973 30.790712975136415 18.417145706761584 0 0 0
1133 1 6 0.1 41.622977597679856 34.68306314242481 15.078636239234289 0 0 0
1183 1 6 0.1 37.71297674386046 33.88618770213741 17.220263472305923 0 0 0
1163 1 5 -0.39 38.020272610163076 31.878644836988542 17.886435334003338 0 0 0
1172 1 10 -0.3 39.61616058853076 33.55704975303672 17.246647835223136 0 0 0
1171 1 8 0.16 38.42124173760739 33.34564138514443 17.845691685070523 0 0 0
1168 1 8 0.05 40.33754886191336 34.535348466147134 17.97773434277497 0 0 0
1179 1 6 0.1 40.45770138092656 35.43737872025027 17.28231620961475 0 0 0
1184 1 6 0.1 42.35791354936375 33.767026024013 17.770834263559404 0 0 0
1126 1 3 0.12 42.592499947708724 35.03228215789905 15.1178761342057 0 0 0
1128 1 5 -0.22 43.35113464196468 34.23075814930607 14.4980213505963 0 0 0
1129 1 5 -0.25 42.85693643232633 36.01310056264487 15.898400871383037 0 0 0
1146 1 10 -0.5 38.81673686311537 36.332259049673155 18.709436153330373 0 0 0
1173 1 9 -0.05 41.61584553201946 33.82629859564126 18.5280102177293 0 0 0
1197 1 6 0.1 48.55389428555631 31.317940799002624 12.932604681491554 0 0 0
1134 1 7 0.28 45.06094414409599 32.764474356196914 13.652247403946404 0 0 0
1193 1 5 -0.25 47.53815373889718 31.316652331750795 14.61285521325139 0 0 0
1123 1 2 0.28 44.19492743199163 36.132439309456274 16.152977826144614 0 0 0
1125 1 3 0.215 44.53086899482654 34.364802976624404 14.745975881685293 0 0 0
1203 1 8 0.16 46.22000758993514 31.820530737119793 17.53800871064055 0 0 0
1215 1 6 0.1 46.26665390558357 32.70715559377454 16.834713287275388 0 0 0
1127 1 4 -0.665 45.434140283169874 33.56432755412838 14.11087722504237 0 0 0
1122 1 2 0.14 45.034288921711976 35.34652956614222 15.478347193010434 0 0 0
1135 1 7 0.28 46.39232433073421 33.74071755201215 14.540172217593861 0 0 0
1130 1 5 -0.28 46.34442850192914 35.578324845417605 15.801477220914007 0 0 0
1124 1 2 0.15 46.15409322880808 36.58977795520314 16.691353809013577 0 0 0
1213 1 6 0.1 44.12540023115833 32.34923238489465 17.900533488868827 0 0 0
1202 1 9 -0.2 44.928844491925894 31.79331637728062 18.331062934879803 0 0 0
1238 1 10 -0.5 49.485187606739316 36.5331865746655 17.502473398128576 0 0 0
1243 1 6 0.1 48.882514206845784 34.004367259684166 16.932223915945535 0 0 0
1204 1 10 -0.3 47.246186935887685 31.811778988799134 18.514440009370542 0 0 0
1131 1 5 -0.39 44.91810244093051 37.08233467251755 16.879089218281855 0 0 0
1248 1 6 0.1 49.942219626529344 35.96380539651834 15.53338782643333 0 0 0
1232 1 8 0.05 49.962423106970384 34.22480864260653 16.874041288041255 0 0 0
1132 1 6 0.13 47.045546310061404 37.14114158537388 17.038218662701563 0 0 0
1237 1 9 -0.05 50.202092191470754 35.68306630899258 16.566644218179167 0 0 0
1236 1 10 -0.3 50.722523556214774 33.36577287586405 16.04561196166776 0 0 0
1247 1 6 0.1 51.59892413273593 31.426963176629858 16.563908374913602 0 0 0
1225 1 5 -0.25 53.22545519051667 34.496149561150204 14.792606262239834 0 0 0
1219 1 2 0.28 53.68557519497808 33.87742979320303 15.929267343305385 0 0 0
1218 1 2 0.14 54.92350890349241 34.105232397822604 16.34694697514654 0 0 0
1235 1 8 0.16 51.636761926144025 32.5482471781609 16.880117536198235 0 0 0
1249 1 6 0.1 51.29254710795852 35.95052658441594 16.55694060445897 0 0 0
1227 1 5 -0.39 53.07687865134782 33.06627816176365 16.872110458855065 0 0 0
1220 1 2 0.15 54.083242623329745 32.94472379133097 17.750327804721298 0 0 0
1226 1 5 -0.28 55.27941401891997 33.53254596351538 17.537688226568772 0 0 0
1222 1 3 0.12 54.10329361952087 35.31704281791178 14.347809089945951 0 0 0
1245 1 6 0.1 50.106973425306684 32.118562826158914 18.400275232605438 0 0 0
1234 1 9 -0.2 50.99763405991363 32.73596127382291 18.32561311506612 0 0 0
1233 1 8 0.05 50.448482188552504 34.16386017858008 18.33523406749031 0 0 0
1229 1 6 0.1 53.92733047129286 35.684769053431474 13.341017531293748 0 0 0
1224 1 5 -0.22 55.26027227150507 35.63758522131908 14.7351982605814 0 0 0
1221 1 3 0.215 55.656392097348224 35.106575944193445 15.821501335652314 0 0 0
1228 1 6 0.13 54.01454876811374 32.189309138321086 18.50852090704838 0 0 0
1244 1 6 0.1 51.213678664093 34.891757722653466 18.53402412393075 0 0 0
1230 1 7 0.28 57.43498273029124 36.124008387997534 16.039385534160832 0 0 0
1223 1 4 -0.665 56.83638679406888 35.33877412112467 16.317731710416894 0 0 0
1231 1 7 0.28 57.01256650171959 34.772107654048284 17.09772631758583 0 0 0
1100 1 6 0.13 40.354909092958906 43.359581451209735 13.86466797123489 0 0 0
1136 1 8 0.05 42.79159859289965 39.398464756921555 18.49811121498129 0 0 0
1137 1 8 0.05 43.091745847804624 40.278393730889896 17.235677321296652 0 0 0
1152 1 6 0.1 41.02189713390412 38.814437607516815 17.25653021322982 0 0 0
1148 1 6 0.1 42.15996166189098 40.75815142283205 16.832144452421158 0 0 0
1141 1 9 -0.05 41.246279758612054 39.0334488068289 18.34118519259081 0 0 0
1150 1 6 0.1 43.14339115020227 38.56274865458844 15.960447946351872 0 0 0
1140 1 10 -0.3 43.564276755171974 38.235471851403254 18.414607396305865 0 0 0
1153 1 6 0.1 40.603863678210615 39.899051600735056 18.561878684966675 0 0 0
1111 1 11 1.21 43.387243897655864 42.78130756923188 18.091262803025163 0 0 0
1110 1 10 -0.5 42.997352605917605 43.719035018817834 16.790540157007573 0 0 0
1138 1 9 -0.2 43.848129790165586 39.23738954268933 16.390685542545224 0 0 0
1114 1 10 -0.5 43.95079298662272 41.348640235499914 17.637868408865437 0 0 0
1149 1 6 0.1 44.51698905633513 39.59892549636538 15.543063027699194 0 0 0
1139 1 8 0.16 44.55560336435008 38.41959457349588 17.403768942121083 0 0 0
1151 1 6 0.1 45.47267718540079 38.864421701467194 17.85285789252569 0 0 0
1242 1 10 -0.5 49.673963229209036 38.837397132184 16.344037192988417 0 0 0
1277 1 6 0.1 49.27138192193972 39.0793998055619 13.908832810050917 0 0 0
1239 1 11 1.21 49.92780362700874 38.040454099257424 17.754105847324087 0 0 0
1279 1 6 0.1 49.632042476251854 41.506048581937456 13.6861100215052 0 0 0
1260 1 6 0.13 53.319971009897685 41.42621071869536 12.513579009272322 0 0 0
1267 1 8 0.16 50.55961345901651 40.942914204295974 13.585277454083121 0 0 0
1275 1 6 0.1 50.35527129682466 41.40133008575768 16.293053397869343 0 0 0
1266 1 9 -0.2 50.33286889776279 39.43625453994815 14.009757347080434 0 0 0
1265 1 8 0.05 50.72912726646847 39.36842293500308 15.526015263537342 0 0 0
1268 1 10 -0.3 51.48030923115782 41.388166731178536 14.550935706567307 0 0 0
1278 1 6 0.1 50.907184221677156 38.706591080857756 13.410814345991458 0 0 0
1264 1 8 0.05 51.09223897272414 40.82589216891024 15.844506370901632 0 0 0
1276 1 6 0.1 51.63450804565703 38.822351822146445 15.694061757540798 0 0 0
1281 1 6 0.1 52.259570530807615 40.73062499860419 17.654163171326008 0 0 0
1269 1 9 -0.05 52.42355320630138 40.810859133714224 16.587214612262137 0 0 0
1280 1 6 0.1 53.10145142803707 40.044408401941105 16.265915781527312 0 0 0
1270 1 10 -0.5 53.070194159470375 42.04481665626078 16.274911252186357 0 0 0
1271 1 11 1.21 53.64843496956446 42.993503102992264 17.440952344918674 0 0 0
1309 1 6 0.1 54.59474947275037 43.175476077527584 14.539719416576917 0 0 0
1272 1 10 -0.51 54.895790880110724 42.41761657276258 18.206666514590758 0 0 0
1240 1 10 -0.51 51.505648817436075 38.154507652682746 18.19051172313717 0 0 0
1092 1 2 0.15 40.46366480255471 43.83941218972086 12.868807183511528 0 0 0
1099 1 5 -0.39 41.230324495763156 45.01161832309489 12.720631230686381 0 0 0
1118 1 6 0.1 39.70022708527259 45.849985025904 14.456611348363555 0 0 0
1080 1 10 -0.51 38.403642158523894 47.4227080370579 16.199916265293616 0 0 0
1117 1 6 0.1 40.563418193643116 47.51658110617986 14.630598774092578 0 0 0
1119 1 6 0.1 42.36730371180739 46.741251723604705 13.283234684884164 0 0 0
1107 1 8 0.16 41.79345943915387 45.87375586460603 13.758911416666603 0 0 0
1106 1 9 -0.2 40.6634193732027 46.394139956471264 14.623232277305016 0 0 0
1116 1 6 0.1 40.67563623695319 45.16785331603511 16.44511236824363 0 0 0
1104 1 8 0.05 42.576544132821674 45.83349893644985 15.843635678803116 0 0 0
1105 1 8 0.05 41.127014260082746 46.118117662802995 16.047646737495192 0 0 0
1082 1 10 -0.5 41.00756464496791 47.2043666978429 16.917980398055562 0 0 0
1079 1 11 1.21 39.51718998827836 47.73948657131665 17.394205480721336 0 0 0
1078 1 10 -0.5 39.57452805445653 49.36492610079285 17.580501788074557 0 0 0
1115 1 6 0.1 43.13861553854674 46.78603098014145 15.746235657863572 0 0 0
1109 1 9 -0.05 43.27430954611883 45.06154637375722 16.914368492984938 0 0 0
1108 1 10 -0.3 42.63369439511968 45.23024832319461 14.599595271918377 0 0 0
1120 1 6 0.1 42.98395687870246 45.60536253804256 17.871325004176082 0 0 0
1089 1 6 0.1 40.59934211303732 49.37401726063454 15.818248997422849 0 0 0
1088 1 6 0.1 41.425479118986246 49.993542033242704 17.203794335701307 0 0 0
1069 1 6 0.1 43.08323306347885 48.469801299127646 13.40211212704633 0 0 0
1062 1 3 0.12 43.159423177771636 49.4781958965978 13.001550333371005 0 0 0
1121 1 6 0.1 44.345521746181646 45.15984012277785 16.766404800785896 0 0 0
4557 2 16 -1.18 46.4333 46.8807 18.7482 0 0 0
1311 1 6 0.1 53.50642680148047 45.08645815755945 13.67655445543138 0 0 0
1298 1 9 -0.2 55.21817516125367 44.05070399176436 14.662608854048097 0 0 0
1297 1 8 0.05 55.21602432477206 44.65336917975742 16.05525313660962 0 0 0
1274 1 10 -0.5 54.00970418282379 44.444808989312875 16.798854008033175 0 0 0
1296 1 8 0.05 55.289821052426085 46.146634994260936 15.837272587929293 0 0 0
1299 1 8 0.16 54.586597816555425 45.19229633311595 13.859471220923108 0 0 0
1300 1 10 -0.3 54.79349068174221 46.39771834974018 14.588729160521748 0 0 0
1307 1 6 0.1 54.7625203065294 46.854456129583326 16.544470251688654 0 0 0
1291 1 5 -0.39 55.25846862591212 45.31457395107831 12.54378202780717 0 0 0
1308 1 6 0.1 56.021413072005764 44.26201543960303 16.609866744411065 0 0 0
1310 1 6 0.1 56.24960084536543 43.94885977458439 14.139775433860443 0 0 0
1312 1 6 0.1 56.924924943426376 47.14458617286574 14.932529222523023 0 0 0
1301 1 9 -0.05 56.73464060063137 46.620252969600315 15.834437948120867 0 0 0
1302 1 10 -0.5 57.0247901880168 47.56430453632299 16.83344171189959 0 0 0
1313 1 6 0.1 57.435399917490535 45.6905634537791 15.80162585753351 0 0 0
1303 1 11 1.21 58.53239804374441 48.242565855666314 17.019469249668926 0 0 0
1306 1 10 -0.5 58.846435662120484 49.35931785338414 15.838259763971314 0 0 0
1304 1 10 -0.51 59.581751418768675 47.04961896339298 16.720959262661932 0 0 0
1339 1 6 0.1 56.796723053300674 49.9230797380635 14.355437075393546 0 0 0
1048 1 10 -0.51 36.58709342553891 51.636324969845056 17.590011069122504 0 0 0
1046 1 10 -0.5 36.67387317158187 54.289977516096855 17.498210838062768 0 0 0
1045 1 9 -0.05 37.389320079992785 55.427653484110984 16.926256230839975 0 0 0
1057 1 6 0.1 36.990017472761075 55.58790340552048 15.937789680193747 0 0 0
1068 1 6 0.13 41.94527097778889 54.576940175822095 12.79986341403629 0 0 0
1060 1 2 0.15 42.21695478142238 53.55794953081813 12.623281512960354 0 0 0
1077 1 9 -0.05 40.449329507774024 50.04287976782172 16.662438802537565 0 0 0
1047 1 11 1.21 37.52313466351511 52.99790239538504 17.458419300524373 0 0 0
1084 1 6 0.1 38.182546731830904 50.92642317160018 15.379469084328507 0 0 0
1086 1 6 0.1 39.790185895508166 51.185180605815994 13.591349126635672 0 0 0
1050 1 10 -0.5 38.297438880087526 52.908108179734825 16.040485022885473 0 0 0
1085 1 6 0.1 38.75878700550035 52.718924180460355 13.746654998920416 0 0 0
1074 1 9 -0.2 39.54979408984141 52.14343525869522 14.188128591271077 0 0 0
1073 1 8 0.05 38.94614681293258 51.754018186729596 15.510507887749295 0 0 0
1087 1 6 0.1 40.70516720264986 53.82766043808868 14.97778435826118 0 0 0
1076 1 10 -0.3 41.298395390032184 52.01453388626683 15.837374972531702 0 0 0
1075 1 8 0.16 40.870425685720974 52.75764537548673 14.701585915255944 0 0 0
1072 1 8 0.05 40.13769814966619 51.49057471433478 16.472881023593953 0 0 0
1056 1 6 0.1 38.497934925642866 55.116348661717275 16.847615341752874 0 0 0
1083 1 6 0.1 39.99490467375662 51.873175173015966 17.541937759305192 0 0 0
1067 1 5 -0.39 41.837889768058965 52.696488054961605 13.603096341398274 0 0 0
1059 1 2 0.28 42.513100544499146 51.56839986713087 13.234854202015477 0 0 0
1065 1 5 -0.25 42.51758797750907 50.25980562467017 13.707425386482594 0 0 0
1354 1 5 -0.28 48.43609970670265 55.94883401192771 15.59955578072967 0 0 0
1356 1 6 0.13 49.32579261186204 54.22439730078945 16.434881093864128 0 0 0
1348 1 2 0.15 49.44305118841396 55.28862717459979 16.15310865521961 0 0 0
1355 1 5 -0.39 50.64476248015032 55.926606885576646 16.399440554126514 0 0 0
1344 1 6 0.1 55.72583398756664 50.35232873133687 16.41224105344141 0 0 0
1363 1 8 0.16 51.81913510377575 55.395899018630224 17.13487590807668 0 0 0
1360 1 8 0.05 54.0924041685557 55.387815024560446 17.027285224045727 0 0 0
1371 1 6 0.1 54.44029067051655 55.317132815688346 18.0607321696382 0 0 0
1362 1 9 -0.2 52.14528871431275 53.985675997978205 16.546419735780606 0 0 0
1375 1 6 0.1 51.53134745302141 55.397699319447824 18.217948179217366 0 0 0
1373 1 6 0.1 51.68176764571407 53.21147583366961 17.04777033632913 0 0 0
1374 1 6 0.1 51.91235743674445 53.960431925104984 15.449102569255988 0 0 0
1338 1 10 -0.5 54.010436738843 52.99286963986907 17.69548346271177 0 0 0
1361 1 8 0.05 53.64823111930305 53.95369600029386 16.665130618303124 0 0 0
1372 1 6 0.1 54.090706538142896 53.72856865044731 15.719388284712439 0 0 0
1335 1 11 1.21 55.57104945400168 52.66265333807592 17.89415628180431 0 0 0
1345 1 6 0.1 54.87069187101904 51.28450091399594 15.21545761415213 0 0 0
1365 1 9 -0.05 55.15800023166524 55.99794168435528 16.14985030023348 0 0 0
1377 1 6 0.1 56.00425033774317 55.34754696930254 15.936340587979553 0 0 0
1333 1 9 -0.05 55.82656978818553 51.24703915535255 15.741708987706769 0 0 0
1334 1 10 -0.5 56.20490713192286 52.37627722377391 16.448022539262507 0 0 0
1364 1 10 -0.3 52.94652503512681 56.22486742693053 17.036987077105707 0 0 0
1376 1 6 0.1 54.713023915143054 56.19988835689185 15.144719106559718 0 0 0
1336 1 10 -0.51 56.404360616962606 53.87986560800793 18.55258307757206 0 0 0
1341 1 6 0.1 60.240075558732194 51.38506586984688 15.879481101032836 0 0 0
1321 1 5 -0.25 61.92785882462993 53.32692965230875 13.66997545495748 0 0 0
1315 1 2 0.28 60.68788801576266 53.876300415797836 13.71524554245949 0 0 0
1329 1 8 0.05 58.21322629456181 50.628878174363976 15.905804689352943 0 0 0
1342 1 6 0.1 58.90146568493682 52.610141623880835 16.157422670954602 0 0 0
1330 1 9 -0.2 59.25819292362058 51.71654273892115 15.62358457028651 0 0 0
1328 1 8 0.05 57.05731332954467 50.87621246971566 14.899810859945973 0 0 0
1340 1 6 0.1 57.79596148938399 50.7127051272266 16.930469486996333 0 0 0
1343 1 6 0.1 59.270712827680406 51.30205647835084 13.478797762294308 0 0 0
1331 1 8 0.16 58.915196637634054 52.07576109203626 14.21715482063079 0 0 0
1332 1 10 -0.3 57.54409664536848 51.92640811370963 14.07455812128214 0 0 0
1323 1 5 -0.39 59.38664068571836 53.42890692322107 13.953184381505066 0 0 0
1316 1 2 0.15 58.67593168434942 54.49790443542965 13.461861475895812 0 0 0
1324 1 6 0.13 57.608479859550286 54.38605754710932 13.2152941411899 0 0 0
1314 1 2 0.14 60.570511558293774 55.202666195056906 13.324060254223927 0 0 0
1322 1 5 -0.28 59.300900983751845 55.59910474621427 13.060464111971163 0 0 0
1317 1 3 0.215 61.59302328246512 55.847181809393824 12.971049503893896 0 0 0
1368 1 10 -0.51 57.84722371339016 56.06067643822017 17.773048212328355 0 0 0
1318 1 3 0.12 62.810792503908424 54.160113193984294 13.349951568210852 0 0 0
1320 1 5 -0.22 62.75870084210302 55.38339634857579 13.00795705710832 0 0 0
1325 1 6 0.1 63.744621804796196 53.7371119787288 13.223956537883154 0 0 0
974 1 7 0.28 24.202324831922436 61.22249896093448 17.092429254299475 0 0 0
967 1 4 -0.665 24.820808075403612 60.96779169291417 17.851750759488706 0 0 0
975 1 7 0.28 25.823021825166297 60.90511111126706 17.720543172583632 0 0 0
1052 1 6 0.1 35.06522296336609 56.43465356052305 17.489125908596264 0 0 0
1041 1 8 0.05 35.800636254809525 57.20366670635928 17.825215505434592 0 0 0
1054 1 6 0.1 35.736471223882575 58.04921681090138 15.737920085493458 0 0 0
1042 1 9 -0.2 35.76314581006557 58.314976625664926 16.852895926309742 0 0 0
1053 1 6 0.1 35.01205063712787 59.15459471227828 16.989215044552964 0 0 0
1036 1 6 0.13 36.499750207671944 61.3590691106251 15.505879522871089 0 0 0
1043 1 8 0.16 37.144283008654426 58.88464922513336 17.045360914047464 0 0 0
1028 1 2 0.15 37.19147446658476 60.610555043647295 15.062590840781748 0 0 0
1055 1 6 0.1 37.28705492493157 59.65577107642698 17.844394218069787 0 0 0
1040 1 8 0.05 37.22841022342743 56.68608590170877 17.755493532125133 0 0 0
1035 1 5 -0.39 37.627615363142034 59.50057369621005 15.780200764793989 0 0 0
1034 1 5 -0.28 37.84644839167524 61.05803178133936 13.916352769310974 0 0 0
1026 1 2 0.14 38.82114229417965 60.03816277707859 13.913751943426197 0 0 0
1044 1 10 -0.3 38.04521204029843 57.76775889937126 17.27716177993239 0 0 0
1027 1 2 0.28 38.66829456041193 59.133275922707085 14.922755263079027 0 0 0
1033 1 5 -0.25 39.62316148830081 58.115386582982374 14.949546990273827 0 0 0
1029 1 3 0.215 39.724837211501594 59.931949438180666 12.959272711408051 0 0 0
1032 1 5 -0.22 40.592300233280056 59.03573123255044 13.020448941603657 0 0 0
1030 1 3 0.12 40.43067520142063 58.21161516879491 13.959695267517533 0 0 0
1037 1 6 0.1 41.19232289660677 57.44237839540862 13.934943761469292 0 0 0
1346 1 2 0.14 49.021107882157146 57.193854358311846 15.492057023580667 0 0 0
1359 1 7 0.28 46.84144072153884 57.41617738407945 14.531013225829758 0 0 0
1352 1 5 -0.22 49.25534499517128 59.370286487450116 14.959463612336618 0 0 0
1349 1 3 0.215 48.55079186782876 58.315383611913184 14.90800357884213 0 0 0
1358 1 7 0.28 46.96888354804733 59.167914133880515 14.053329157892383 0 0 0
1351 1 4 -0.665 47.35099368112628 58.31298164572098 14.380416476913249 0 0 0
1347 1 2 0.28 50.34236290696925 57.20440918346638 15.94986950128175 0 0 0
1357 1 6 0.1 50.85600005442531 60.279591021427564 15.852347727639803 0 0 0
1350 1 3 0.12 50.404398760716866 59.315252693402655 15.526074408698193 0 0 0
1353 1 5 -0.25 51.039748205216675 58.400903847726156 16.010674147949874 0 0 0
1366 1 10 -0.5 55.75117716625965 57.17936012025395 16.79506341753518 0 0 0
1327 1 7 0.28 60.49439644914581 57.44880369049496 12.515432266298781 0 0 0
1367 1 11 1.21 56.702122959442704 57.079026558796855 18.065439845669488 0 0 0
1407 1 6 0.1 57.008267412370664 60.21083468407849 16.14156402745332 0 0 0
1370 1 10 -0.5 57.21626445791391 58.56380288069084 18.451886221644596 0 0 0
1405 1 6 0.1 58.380163896733585 58.22521110671875 15.933288611611955 0 0 0
1395 1 8 0.16 58.06136040918796 60.51182985535666 16.29506562390073 0 0 0
1385 1 5 -0.25 58.594406139897835 59.64245421046505 13.10600830512319 0 0 0
1406 1 6 0.1 59.78741042244765 59.30573270281751 16.38107807050861 0 0 0
1394 1 9 -0.2 58.70249522797092 59.09440836123382 16.53577879139093 0 0 0
1393 1 8 0.05 58.52807429366793 59.01119416915874 18.03245249338079 0 0 0
1404 1 6 0.1 59.38988971465793 58.500310590299 18.44944085366979 0 0 0
1408 1 6 0.1 60.56927172425329 60.59731965880996 17.547673660088186 0 0 0
1396 1 10 -0.3 58.15067505254958 61.285101913659986 17.484064275809786 0 0 0
1387 1 5 -0.39 58.688353397141796 61.25961551702384 15.134897622937219 0 0 0
1379 1 2 0.28 58.84832447855875 60.84394801543774 13.810560755509158 0 0 0
1392 1 8 0.05 58.69641630848164 60.45976706857565 18.461418355359463 0 0 0