7396
Atoms. Timestep: 0
O 41.5443 18.1688 37.628
C 45.3049 13.4571 36.6347
C 45.3342 14.6559 35.8706
C 43.2955 14.0444 36.207
C 46.3711 12.9442 37.156
C 47.4847 14.6115 36.4378
N 46.2638 11.8318 37.8396
N 47.4996 13.5113 37.0556
N 46.5179 15.2761 35.8767
N 43.9631 13.04 36.8538
N 44.0301 15.0476 35.692
H 42.1909 14.0988 36.1001
H 48.4809 15.0205 36.326
H 47.1757 11.4418 38.1675
H 45.3127 11.5191 37.9693
C 43.7922 18.0592 36.9013
C 42.5261 17.2498 37.2123
C 42.2063 16.7456 35.8434
C 43.6039 16.3795 35.3228
O 44.5107 17.3184 35.9492
C 44.6588 18.208 38.0947
O 45.2747 16.9959 38.5735
P 45.2085 16.6653 40.1164
O 43.7077 16.5693 40.6364
S 46.188 18.0117 41.3709
O 45.9044 15.2474 40.399
H 43.4732 19.0164 36.4539
H 42.7228 16.4369 37.8734
H 41.7106 17.4174 35.138
H 41.5096 15.9115 35.9271
H 43.6371 16.476 34.1815
H 44.0502 18.5612 38.9369
H 45.4189 19.0303 37.9763
C 44.2078 14.1649 46.4898
C 44.0763 13.3659 45.2906
C 45.7917 14.6266 45.2854
C 43.2601 14.0607 47.4821
C 42.1769 12.6129 46.1965
N 43.4112 14.8719 48.5129
N 42.2095 13.3396 47.2755
N 42.9067 12.6287 45.1459
N 45.3328 14.9255 46.566
N 45.1283 13.6602 44.4559
H 46.6395 15.1101 44.907
H 41.1761 12.1199 45.9983
H 42.5586 14.906 49.1709
H 44.2945 15.4141 48.5622
C 47.2826 13.9126 41.9089
C 45.9859 14.7485 41.7094
C 44.8166 13.8159 42.0588
C 45.5129 13.0808 43.1775
O 46.9153 13.1641 43.0513
C 48.4199 14.8686 42.1699
O 48.8387 15.3386 40.8865
P 50.0512 16.4513 40.8176
O 51.2623 15.9346 41.7948
S 49.4387 18.31 41.3683
O 50.5257 16.466 39.2619
H 47.289 13.2429 40.9834
H 46.0397 15.5562 42.4622
H 44.507 13.2091 41.1772
H 43.9025 14.3016 42.3663
H 45.2162 11.9772 43.1504
H 49.1737 14.1981 42.6634
H 48.1711 15.6582 42.8971
C 53.8719 16.0979 33.6731
C 52.9365 15.6555 34.667
C 53.9675 17.4734 35.2585
C 53.9536 15.4244 32.4746
C 52.5262 14.0823 33.2608
N 54.8795 15.6947 31.5732
N 53.3449 14.3647 32.3498
N 52.1918 14.5602 34.3701
N 54.4891 17.2866 34.0036
N 52.9896 16.6295 35.6931
H 54.1963 18.3954 35.8124
H 52.1479 13.1304 33.0188
H 54.8532 15.197 30.6719
H 55.3672 16.5253 31.8712
C 52.7866 16.0188 39.1453
C 51.4458 15.4574 38.8012
C 51.4529 15.3671 37.2546
C 52.2241 16.6724 36.9592
O 53.1357 16.9033 38.0827
C 53.9105 15.0486 39.3577
O 55.108 15.7473 39.6404
P 55.4465 16.3156 41.124
O 55.419 15.2435 42.2637
S 54.2822 17.9971 41.5903
O 56.9035 16.9037 41.0767
H 52.7588 16.5657 40.0721
H 51.3261 14.4831 39.316
H 50.4336 15.3243 36.7945
H 52.1117 14.5117 36.8841
H 51.5222 17.5529 36.8557
H 53.9819 14.3775 38.4754
H 53.6659 14.4587 40.2793
C 61.5543 12.4418 38.9391
C 61.2728 13.7774 39.05
C 59.7205 12.5281 39.735
C 62.7827 12.0512 38.4718
C 63.1758 14.1231 38.1142
N 63.0139 10.764 38.4089
N 63.5994 12.9422 38.0077
N 62.1658 14.6677 38.6097
N 60.6402 11.5461 39.4355
N 60.0013 13.8777 39.5791
H 58.7106 12.224 39.7921
H 63.7965 14.7838 37.5843
H 63.9409 10.5756 38.0851
H 62.186 10.1088 38.4163
C 59.2602 16.91 41.2669
C 57.9824 16.2172 41.6874
C 58.3253 14.8183 41.0466
C 59.1472 15.0518 39.8815
O 59.9653 16.0834 40.308
C 60.25 17.2142 42.3745
O 61.2928 18.0232 41.7855
P 62.4094 18.7242 42.6837
O 63.545 17.7303 43.3197
S 61.4941 19.9728 44.0315
O 63.2738 19.73 41.7415
H 59.017 17.8605 40.8183
H 57.9035 16.349 42.7479
H 57.3666 14.415 40.8304
H 58.8659 14.3003 41.8393
H 58.5157 15.3458 39.0279
H 60.6776 16.3168 42.7139
H 59.7191 17.7024 43.1589
C 65.6124 19.366 35.3911
C 64.5704 19.8288 36.2066
C 66.0701 18.6958 37.3005
C 65.5838 19.609 34.1139
C 63.7151 20.6304 34.4061
N 66.4914 19.0786 33.279
N 64.7064 20.3365 33.638
N 63.5247 20.4782 35.6281
N 66.5972 18.5913 36.0327
N 64.9422 19.4561 37.4592
H 66.6385 18.548 38.172
H 62.8777 21.1191 33.8987
H 66.4124 19.1302 32.2652
H 67.2679 18.6888 33.8056
C 65.3278 20.4827 40.7596
C 64.4252 19.241 41.0547
C 64.0369 18.7016 39.6595
C 64.4699 19.8711 38.7695
O 65.5803 20.5367 39.4222
C 66.6361 20.6084 41.4449
O 66.4979 20.4105 42.825
P 67.1446 21.3484 44.0112
O 66.8771 20.7481 45.4631
S 66.3635 23.2182 43.8845
O 68.7597 21.4573 43.8495
H 64.722 21.37 41.1356
H 64.9421 18.4437 41.7455
H 62.9721 18.5236 39.699
H 64.6218 17.7779 39.4821
H 63.7206 20.6313 38.6111
H 66.9582 21.633 41.3321
H 67.3807 19.9089 41.0574
C 74.5463 24.3262 45.8881
C 73.2328 23.9021 46.2013
C 73.5864 23.8326 44.1031
C 75.423 24.6004 46.9067
C 73.8667 24.1751 48.2704
N 76.6352 24.9828 46.6394
N 75.1005 24.4673 48.0695
N 72.8993 23.8773 47.5343
N 74.8384 24.2749 44.572
N 72.5034 23.6543 44.9876
H 73.4198 23.6989 43.068
H 73.683 24.133 49.2626
H 77.1998 25.155 47.4937
H 76.8189 25.0587 45.6596
C 69.2543 22.4129 45.9711
C 69.6601 21.3887 44.9646
C 71.0476 21.8053 44.3718
C 71.1034 23.2546 44.8079
O 70.3194 23.3394 46.0481
C 69.1376 21.6717 47.3399
O 68.7495 22.6181 48.346
P 67.8411 21.9063 49.4983
O 66.7654 21.0007 48.7061
S 66.7864 23.366 50.5205
O 68.7531 21.017 50.4364
H 68.3027 22.8218 45.8052
H 69.6804 20.3133 45.3342
H 71.236 21.6316 43.2688
H 71.9187 21.2559 44.8518
H 70.6102 23.9628 44.0434
H 70.107 21.2313 47.5062
H 68.4508 20.8341 47.2154
C 69.0337 14.4823 50.8969
C 69.495 15.3815 51.7938
C 68.4767 16.3498 50.1845
C 69.3197 13.1729 51.0477
C 70.2345 13.6297 52.8845
N 69.0252 12.4002 50.0795
N 69.8243 12.7442 52.1109
N 70.2288 14.9495 52.8889
N 68.4741 15.0676 49.7327
N 69.058 16.5972 51.405
H 68.0963 17.0997 49.5003
H 70.809 13.3058 53.7722
H 69.2604 11.3772 50.2528
H 68.4657 12.8007 49.3381
C 68.045 19.5635 52.2793
C 68.439 19.662 50.8222
C 69.6521 18.7861 50.7575
C 69.5231 17.8462 51.9489
O 68.6062 18.382 52.8866
C 66.5511 19.3138 52.0939
O 66.0159 18.7203 53.2655
P 64.3822 18.908 53.5376
O 63.6185 18.0372 52.3788
S 63.9657 20.9367 53.4316
O 64.036 18.3483 54.9996
H 68.2986 20.5373 52.8208
H 67.8053 19.3072 50.061
H 70.534 19.4958 50.908
H 69.8687 18.2231 49.8125
H 70.3753 17.6682 52.4972
H 66.4474 18.7512 51.1555
H 66.0299 20.2926 51.9327
C 60.5447 12.6572 55.2734
C 61.4376 13.5366 55.9093
C 60.8257 14.3149 54.1232
C 60.0621 11.5549 55.9335
C 61.3099 12.1161 57.6452
N 59.2565 10.6093 55.3512
N 60.4671 11.2842 57.142
N 61.7749 13.2797 57.1966
N 60.1281 13.1525 54.0929
N 61.6182 14.6573 55.161
H 60.5864 14.9944 53.3439
H 61.7103 11.7762 58.5904
H 59.1265 9.71104 55.7776
H 58.9639 10.8176 54.3852
C 62.8057 17.6216 56.8253
C 62.6753 18.1756 55.4138
C 62.0004 17.0126 54.5909
C 62.4156 15.8245 55.4359
O 62.2464 16.3114 56.7616
C 62.1657 18.5414 57.8855
O 60.7149 18.6317 57.7761
P 59.8045 19.0967 58.9556
O 58.2509 18.8853 58.5779
S 60.1038 21.1021 59.3249
O 60.1365 18.307 60.3492
H 63.8375 17.5786 57.1281
H 62.2594 19.2285 55.5152
H 62.459 17.0842 53.6027
H 60.9592 17.1437 54.4456
H 63.4674 15.519 55.3849
H 62.5677 19.545 57.9154
H 62.332 18.2037 58.8567
C 58.7154 15.1629 66.0585
C 59.6212 15.9727 65.3384
C 58.1796 15.1895 64.1246
C 58.8164 15.1277 67.4195
C 60.504 16.4382 67.2871
N 57.9532 14.3664 68.0389
N 59.7796 15.7081 68.0052
N 60.6418 16.6128 66.0397
N 57.7783 14.621 65.2545
N 59.3478 15.9549 64.0174
H 57.5261 15.1284 63.3303
H 61.0969 17.1011 67.8691
H 58.2131 14.2354 69.0153
H 57.2959 13.9376 67.4059
C 59.9667 18.988 62.6997
C 59.2646 18.4469 61.3764
C 58.7867 17.1331 61.927
C 59.8582 16.7028 62.9632
O 60.4847 17.8824 63.4682
C 59.119 19.909 63.5668
O 59.8004 20.3894 64.6909
P 59.0233 21.5584 65.4489
O 57.4173 21.1342 65.516
S 59.2469 23.2752 64.3248
O 59.6762 21.6412 66.9288
H 60.879 19.5966 62.2971
H 58.3893 19.0372 61.1939
H 58.6457 16.3746 61.0977
H 57.8314 17.2027 62.4135
H 60.5863 16.0615 62.5171
H 58.1665 19.3487 63.8068
H 58.7917 20.8247 63.031
C 59.1104 20.8725 73.8223
C 59.8224 21.3638 72.7375
C 57.7171 21.2039 72.3913
C 59.6894 20.7937 74.9952
C 61.5571 21.3787 74.1445
N 58.9293 20.7322 76.1075
N 60.8995 21.1096 75.1922
N 61.1821 21.5493 72.9475
N 57.744 20.8325 73.6874
N 58.8924 21.5889 71.6862
H 56.8069 21.2313 71.8158
H 62.5991 21.6749 74.4065
H 59.3118 20.6393 77.0849
H 57.9134 20.8536 75.8739
C 58.2238 22.7921 68.514
C 58.8716 21.4641 68.1476
C 59.5944 21.111 69.4202
C 59.1196 22.2245 70.384
O 57.9468 22.8167 69.9014
C 56.9049 23.0339 67.8262
O 56.4533 24.3538 68.1222
P 55.2375 24.4988 69.2396
O 54.2961 23.279 69.0973
S 54.0519 26.1946 68.8692
O 55.8139 24.6089 70.7638
H 58.8882 23.6605 68.2406
H 57.9699 20.8847 68.0188
H 60.6953 21.2617 69.3814
H 59.3774 20.1158 69.7784
H 59.9772 22.9139 70.482
H 56.2092 22.2673 68.2456
H 57.1095 23.0536 66.7446
C 52.7928 20.9729 75.3358
C 53.9419 21.5767 74.9351
C 52.5168 21.764 73.4448
C 52.6684 20.4516 76.5321
C 54.6698 21.0034 76.946
N 51.5557 19.8156 76.8599
N 53.6009 20.627 77.3936
N 54.9869 21.3911 75.8113
N 51.7575 21.1244 74.4338
N 53.7983 22.1584 73.6395
H 52.0105 21.8008 72.5248
H 55.4762 21.0835 77.6998
H 51.6233 19.3468 77.7297
H 50.8444 19.8222 76.1157
C 55.7923 25.0048 73.1992
C 54.9542 25.0459 71.8865
C 53.8656 24.0372 72.1875
C 54.6988 22.9027 72.7826
O 55.7892 23.5433 73.4972
C 55.0924 25.6582 74.3571
O 55.0065 27.0547 74.0195
P 54.092 28.0246 74.9602
O 53.7671 27.3556 76.3396
S 52.3511 28.4672 74.0775
O 54.9392 29.3757 75.3188
H 56.8156 25.3503 73.0386
H 54.5655 26.0889 71.7139
H 53.2478 23.7121 71.3352
H 53.1592 24.4154 72.8884
H 55.148 22.209 72.0614
H 55.6715 25.4983 75.3481
H 54.0898 25.2474 74.5047
C 60.2897 26.8094 75.8951
C 59.2666 27.3385 75.1204
C 60.384 28.8681 76.101
C 60.4887 25.5073 75.8727
C 58.8951 25.3019 74.424
N 61.5218 25.0353 76.5628
N 59.8782 24.8128 75.0674
N 58.4755 26.4835 74.3514
N 61.1052 27.7458 76.5543
N 59.2596 28.7488 75.3079
H 60.8627 29.8668 76.3903
H 58.324 24.6014 73.8842
H 61.7525 24.0543 76.3113
H 62.085 25.7163 77.0692
C 56.888 30.5553 76.1338
C 56.3964 29.2756 75.4646
C 57.1916 29.4139 74.2041
C 58.4774 29.9147 74.7916
O 58.2318 30.8975 75.7245
C 56.8765 30.568 77.6891
O 56.7759 31.8968 78.2162
P 57.5822 33.1882 77.5482
O 56.9392 34.5143 78.2221
S 57.488 33.1847 75.4693
O 59.0965 33.1103 77.9887
H 56.2243 31.4147 75.791
H 56.7609 28.389 76.0655
H 56.6228 30.0964 73.6442
H 57.3528 28.4951 73.6591
H 59.1208 30.3727 74.0307
H 57.6385 29.9281 78.168
H 55.9167 30.0405 78.0527
C 61.3874 30.9636 84.1395
C 62.0325 31.1922 82.9389
C 59.9768 31.9703 82.9656
C 62.0156 30.1952 85.0479
C 63.7051 30.1248 83.7025
N 61.2629 29.7449 86.0282
N 63.1843 29.8468 84.8657
N 63.3439 30.757 82.7226
N 60.0393 31.3568 84.2239
N 61.1078 31.8839 82.1669
H 59.1338 32.5667 82.6818
H 64.7857 29.9252 83.6475
H 61.7689 29.1816 86.7345
H 60.2665 29.9477 86.0239
C 60.3069 34.353 79.7944
C 59.3455 33.2598 79.4189
C 60.024 31.9834 79.9137
C 61.1954 32.4498 80.8238
O 60.9787 33.8393 81.002
C 59.5826 35.6749 79.994
O 59.026 35.7287 81.2403
P 57.9795 36.8189 81.7446
O 58.7097 38.1987 82.0189
S 56.9578 36.2307 83.5255
O 56.8268 37.0251 80.673
H 61.1402 34.3413 79.0314
H 58.3444 33.3844 79.9398
H 60.3021 31.2772 79.125
H 59.2183 31.5539 80.5745
H 62.1934 32.3292 80.3802
H 58.7646 35.8586 79.3012
H 60.3442 36.4493 79.9411
C 53.5267 40.5673 84.1371
C 54.5558 40.6379 83.3105
C 52.8285 40.071 82.2882
C 53.6739 40.8172 85.4288
C 55.7422 41.4041 85.0448
N 52.6553 40.6197 86.2255
N 54.803 41.2721 85.8812
N 55.7946 41.0609 83.834
N 52.3951 40.1354 83.6065
N 54.1104 40.1668 82.0323
H 52.1945 39.8816 81.4574
H 56.6073 41.8206 85.5355
H 52.8248 40.7542 87.2479
H 51.8028 40.2487 85.7935
C 54.6555 37.7939 79.9861
C 55.7435 37.9515 81.0356
C 56.1879 39.4027 80.9474
C 54.8192 40.0282 80.7047
O 54.0823 39.1596 79.8935
C 53.5144 36.8404 80.325
O 52.719 36.8323 79.1577
P 51.0516 36.6069 79.4355
O 50.7708 35.0471 79.56
S 50.022 37.3974 77.8742
O 50.5895 37.3211 80.8092
H 55.1099 37.4763 79.0844
H 55.3175 37.6468 82.0385
H 56.8223 39.4782 80.0637
H 56.7988 39.7144 81.8501
H 55.0381 40.9246 80.1352
H 52.9574 37.2245 81.181
H 53.844 35.8389 80.5616
C 47.2412 37.9802 86.4356
C 48.2682 37.531 85.6133
C 47.2978 39.1991 84.7495
C 46.9558 37.3928 87.6053
C 48.7149 36.19 87.2958
N 45.9714 37.7203 88.4241
N 47.7678 36.5149 88.0088
N 49.0764 36.5663 86.1841
N 46.5753 39.1015 85.9185
N 48.3556 38.3694 84.544
H 46.9283 39.8939 83.9974
H 49.3797 35.5591 87.744
H 45.9192 37.1705 89.3027
H 45.293 38.4813 88.1551
C 48.8022 38.986 81.3081
C 49.1956 37.5092 81.1487
C 48.9786 36.9625 82.5273
C 49.2692 38.2061 83.4263
O 49.2386 39.3348 82.5559
C 47.3539 39.301 81.0884
O 47.0651 38.8167 79.8262
P 45.836 37.8515 79.5309
O 45.6126 36.9521 80.8678
S 46.3116 36.7822 77.8617
O 44.5873 38.7233 79.1528
H 49.4449 39.472 80.511
H 48.5351 37.0168 80.4334
H 49.6309 36.1269 82.9149
H 47.9493 36.6129 82.6874
H 50.297 38.0042 83.9142
H 47.2296 40.3765 80.9849
H 46.7214 38.7689 81.8501
C 44.1341 44.3765 83.0431
C 43.5473 44.1059 81.8307
C 44.952 42.5188 82.3019
C 43.8038 45.4662 83.7612
C 42.4613 45.9034 82.1613
N 44.3064 45.7842 84.987
N 42.8702 46.1967 83.2865
N 42.6691 44.9923 81.3121
N 45.118 43.4498 83.3528
N 44.0245 42.8381 81.3358
H 45.6022 41.6625 82.2525
H 41.7892 46.6331 81.76
H 43.9753 46.6239 85.4437
H 45.0737 45.1299 85.3703
C 42.6482 39.9357 79.9671
C 44.1715 39.7529 80.068
C 44.6983 41.1049 79.7408
C 43.5696 42.1283 80.1402
O 42.4308 41.2774 80.4353
C 41.9151 39.0556 80.9532
O 40.5361 39.3037 80.7166
P 40.0305 39.1705 79.1286
O 40.93 38.0559 78.387
S 40.0469 40.9028 78.062
O 38.4559 38.7473 79.0368
H 42.321 39.7594 78.9355
H 44.438 39.3646 81.0604
H 44.9638 41.2691 78.6983
H 45.6184 41.279 80.2428
H 43.2499 42.8317 79.3154
H 42.3189 39.3201 82.0124
H 42.1848 38.0047 80.7628
C 37.5063 33.9275 83.55
C 37.1781 34.5451 82.3325
C 36.976 35.8903 83.9273
C 37.8388 32.6445 83.5652
C 37.4469 32.5735 81.4703
N 38.1302 32.0007 84.6878
N 37.7313 31.9527 82.5335
N 37.2311 33.8103 81.1944
N 37.4373 34.7256 84.6391
N 36.8835 35.9038 82.618
H 36.7648 36.7466 84.5278
H 37.3783 31.9485 80.5332
H 38.1689 31.0288 84.5872
H 37.8019 32.5439 85.5218
C 36.6849 37.0479 79.3819
C 38.0665 37.578 79.7855
C 37.9016 37.7838 81.2534
C 36.6661 37.0659 81.6769
O 36.0927 36.3865 80.4975
C 36.6913 36.1262 78.1476
O 35.3138 36.0541 77.6686
P 35.0935 35.18 76.3665
O 35.7735 33.7783 76.576
S 35.9668 36.2335 74.8176
O 33.4716 35.0423 76.1622
H 36.0878 37.9444 79.2219
H 38.7502 36.6864 79.6285
H 37.8741 38.8987 81.5763
H 38.8217 37.3343 81.6467
H 35.8978 37.7385 82.0212
H 37.0827 35.2123 78.4736
H 37.3561 36.5309 77.3789
C 28.73 30.7632 77.6768
C 29.7682 31.7102 77.8841
C 29.2538 31.6052 75.8514
C 28.1147 30.1982 78.6377
C 29.4233 31.2664 79.9859
N 27.0198 29.4888 78.3738
N 28.3864 30.5237 79.8435
N 30.2189 31.8469 79.1743
N 28.3929 30.6204 76.327
N 30.1295 32.2897 76.6387
H 29.2235 31.9309 74.7708
H 29.7915 31.2442 80.9879
H 26.4344 29.1398 79.179
H 26.8064 29.3923 77.3897
C 31.8048 34.5097 74.4819
C 32.9852 34.0502 75.2521
C 32.4145 32.9223 76.0685
C 31.0005 33.4114 76.3146
O 30.6047 34.0702 75.1525
C 32.0226 33.8778 73.1001
O 30.7783 33.843 72.2979
P 30.6588 32.591 71.2375
O 31.5804 31.3867 71.6538
S 31.134 33.3694 69.3923
O 29.151 32.0954 71.1888
H 31.7676 35.5605 74.3178
H 33.771 33.7955 74.5318
H 33.0444 32.6915 76.9202
H 32.4029 31.9754 75.4442
H 31.1232 34.2061 77.1551
H 32.4792 32.9357 73.234
H 32.7155 34.5153 72.537
C 24.6235 27.8934 73.3255
C 25.0271 29.1638 73.057
C 25.3354 27.8977 71.3528
C 24.0982 27.5241 74.5166
C 24.2375 29.6194 75.0624
N 23.802 26.3058 74.6348
N 23.8191 28.4321 75.3841
N 24.9767 30.0276 74.1189
N 24.7779 27.0275 72.2257
N 25.5856 29.1849 71.779
H 25.7781 27.4023 70.4276
H 24.2666 30.2768 75.912
H 23.3583 26.0278 75.5295
H 24.0612 25.5988 73.929
C 27.7022 31.2089 69.4726
C 28.6318 30.8455 70.6356
C 27.8776 30.029 71.6124
C 26.4253 30.2986 71.2058
O 26.5467 30.3462 69.7255
C 28.3838 31.0103 68.1003
O 28.6559 29.6058 67.7822
P 30.1135 29.2159 67.1161
O 31.2752 29.5653 68.1701
S 30.4284 30.3914 65.4764
O 30.2411 27.6441 66.7457
H 27.449 32.2287 69.6668
H 29.5306 30.2584 70.2547
H 28.0295 30.2941 72.6813
H 28.2017 29.0473 71.4818
H 26.0415 31.2833 71.6232
H 29.3076 31.67 68.085
H 27.8357 31.3403 67.2057
C 30.0962 21.6969 64.1217
C 30.5364 22.8516 64.7412
C 28.5053 22.9807 64.2843
C 31.0137 20.6702 63.806
C 32.4193 21.8028 64.9976
N 30.6838 19.5626 63.1672
N 32.1206 20.7393 64.373
N 31.7752 22.9099 65.2155
N 28.7284 21.7049 63.8628
N 29.4374 23.7504 64.8454
H 27.5766 23.3895 64.1639
H 33.4728 21.675 65.339
H 29.7054 19.5893 62.828
H 31.3254 18.7318 63.1055
C 29.065 27.3681 64.6284
C 30.4165 27.2881 65.3987
C 30.6341 25.7844 65.3565
C 29.3066 25.1497 65.3778
O 28.6075 25.9733 64.488
C 29.2436 27.7735 63.1665
O 29.7666 26.6273 62.5723
P 29.0176 26.2329 61.1556
O 30.05 25.2867 60.4397
S 28.445 27.9205 60.1017
O 27.7441 25.3616 61.5083
H 28.3156 27.9843 65.1607
H 31.201 27.901 64.9447
H 31.2232 25.3354 66.1535
H 31.2002 25.5049 64.4593
H 28.7404 25.0995 66.3935
H 29.9077 28.6434 63.0239
H 28.3038 28.0382 62.641
C 25.7777 23.7573 55.9993
C 25.5904 23.8905 57.3836
C 27.0427 22.4525 56.887
C 24.9926 24.3744 55.1785
C 23.9475 25.1971 56.8456
N 25.1788 24.2591 53.8915
N 24.0072 25.0261 55.6147
N 24.6981 24.8046 57.8005
N 26.8074 22.9231 55.6052
N 26.3341 22.8979 58.0043
H 27.6525 21.5831 57.0261
H 23.1839 25.8171 57.16
H 24.4873 24.7896 53.3558
H 25.7602 23.48 53.6099
C 25.7874 24.0771 61.0874
C 27.028 24.702 60.4796
C 27.7094 23.4292 59.9705
C 26.4924 22.6473 59.4257
O 25.3551 23.0532 60.1547
C 24.7333 25.0828 61.4747
O 23.4859 24.5178 61.5891
P 22.2441 25.413 62.1704
O 22.5666 25.9609 63.6834
S 20.5038 24.248 62.2753
O 22.013 26.7284 61.2816
H 25.9203 23.5539 62.139
H 26.7767 25.4168 59.7088
H 28.2987 22.7952 60.7099
H 28.3995 23.606 59.1668
H 26.5857 21.5708 59.5242
H 24.6304 25.9492 60.8335
H 24.9957 25.5297 62.4195
C 17.0719 24.7804 57.2027
C 17.1983 25.8686 58.0521
C 19.1118 25.2556 57.4339
C 15.9278 24.3088 56.7644
C 14.9773 25.7173 58.1176
N 15.9058 23.3177 55.9053
N 14.8836 24.6531 57.4172
N 16.0247 26.4725 58.3935
N 18.3451 24.3323 56.7518
N 18.5461 26.1761 58.2814
H 20.2092 25.133 57.2593
H 14.012 25.9385 58.5624
H 14.9968 22.8922 55.7447
H 16.7546 23.2167 55.3478
C 21.3383 27.9733 59.3395
C 21.4092 26.6245 60.0446
C 19.958 26.322 60.2752
C 19.1939 27.1194 59.1649
O 20.2687 27.9146 58.4757
C 22.5819 28.2538 58.4804
O 22.3996 29.4033 57.7674
P 23.3063 29.5414 56.4482
O 22.9968 28.3191 55.4406
S 25.2796 29.6721 56.8122
O 22.8867 30.917 55.726
H 21.1466 28.8231 60.02
H 21.8613 25.8375 59.48
H 19.5203 26.7319 61.2583
H 19.8391 25.1908 60.2935
H 18.3626 27.7562 59.6023
H 22.7813 27.3892 57.8864
H 23.4112 28.3753 59.1667
C 17.5592 28.4346 53.5524
C 18.5683 29.2137 53.0872
C 17.9702 29.6657 55.112
C 16.9491 27.5897 52.63
C 18.3466 28.2251 51.1431
N 15.9988 26.8624 52.9747
N 17.3012 27.5563 51.4216
N 18.9674 29.1007 51.7749
N 17.0997 28.6907 54.8387
N 18.7954 30.1292 54.0783
H 17.9054 30.0916 56.0711
H 18.6122 28.2072 50.0786
H 15.4703 26.4423 52.1864
H 15.7284 26.717 53.9727
C 21.8431 31.3424 53.5216
C 21.7047 30.7048 54.9291
C 20.4257 31.3606 55.4252
C 19.6572 31.3883 54.1135
O 20.5154 31.4503 52.9961
C 22.8137 30.4689 52.6592
O 22.5062 30.7892 51.3249
P 23.1208 29.8715 50.2008
O 24.5582 29.2527 50.7724
S 23.4518 30.9784 48.4748
O 22.1809 28.6211 49.7208
H 22.2886 32.4183 53.6537
H 21.4275 29.6439 54.9294
H 20.7392 32.3632 55.7353
H 19.9445 30.847 56.2217
H 18.9278 32.2639 53.9998
H 22.5902 29.4671 52.9186
H 23.9147 30.6526 52.7137
C 20.406 23.6714 45.6874
C 20.9788 24.8901 46.0464
C 19.9249 24.0918 47.6998
C 20.6775 23.11 44.4649
C 21.8085 24.8978 43.9678
N 20.159 21.9588 44.1506
N 21.3411 23.7635 43.6156
N 21.7452 25.5008 45.0598
N 19.7598 23.0641 46.7645
N 20.4976 25.247 47.3535
H 19.3325 24.0801 48.572
H 22.2803 25.4976 43.2268
H 20.2413 21.7687 43.2054
H 19.7808 21.4032 44.8937
C 22.0369 28.3611 47.3076
C 22.6581 27.8664 48.5912
C 22.1432 26.456 48.6171
C 20.7482 26.526 48.0257
O 20.8097 27.6144 47.1024
C 23.0436 28.3494 46.1293
O 22.626 29.2015 45.0488
P 23.5711 29.3951 43.7229
O 23.7918 28.0432 42.9414
S 25.3925 30.1711 44.4148
O 22.9969 30.4992 42.7133
H 21.7216 29.4051 47.433
H 23.7891 27.8002 48.412
H 22.2522 25.8279 49.477
H 22.8347 26.0046 47.9187
H 20.0055 26.7182 48.8177
H 23.3274 27.3326 45.8397
H 23.9754 28.8935 46.4908
C 18.3472 27.0796 40.3957
C 18.4187 27.7915 41.6287
C 19.0227 28.9808 40.0399
C 18.2092 25.76 40.3555
C 17.9033 25.8829 42.4585
N 18.2042 25.1169 39.2139
N 18.0103 25.1649 41.4103
N 18.1704 27.081 42.8014
N 18.6647 27.8979 39.2775
N 18.9263 29.064 41.4324
H 19.4729 29.7322 39.4998
H 17.5306 25.2801 43.25
H 18.0256 24.1045 39.1786
H 18.3989 25.6473 38.3535
C 21.1171 31.6233 41.6367
C 21.7771 30.2273 42.0851
C 20.6392 29.7828 43.0799
C 19.3791 30.1083 42.3651
O 19.7012 31.3341 41.6999
C 21.5237 31.9429 40.2283
O 20.966 33.1414 39.8022
P 21.2852 33.5967 38.3465
O 20.8696 32.4965 37.288
S 23.3492 33.7849 38.3157
O 20.5091 35.0103 38.0898
H 21.3162 32.4715 42.3548
H 21.8466 29.474 41.2362
H 20.6849 30.4424 43.9842
H 20.7449 28.7174 43.4089
H 18.4985 30.3176 43.0318
H 21.2462 31.0798 39.5159
H 22.6539 31.8976 40.224
C 15.1422 34.7771 34.4339
C 15.78 34.6932 35.6426
C 17.1332 34.8957 33.9939
C 13.8305 34.5252 34.2841
C 13.7509 34.1594 36.3899
N 13.243 34.5856 33.0923
N 13.1595 34.2391 35.2979
N 14.9413 34.3757 36.7318
N 15.9945 34.889 33.3824
N 17.1804 34.7625 35.3878
H 18.1222 35.0634 33.5398
H 13.1606 33.6646 37.1196
H 12.1995 34.5807 33.0783
H 13.7862 34.9032 32.2803
C 19.4394 36.9179 37.1058
C 20.3587 35.7742 36.8447
C 19.5816 35.0027 35.7655
C 18.1923 35.0384 36.3711
O 18.1023 36.3774 36.8527
C 19.75 38.0065 36.1354
O 19.0795 39.1773 36.5039
P 19.1507 40.4966 35.6306
O 18.2268 40.3857 34.2628
S 21.1204 40.8757 34.9471
O 18.6328 41.6989 36.508
H 19.4602 37.3445 38.1633
H 21.4296 36.1109 36.4591
H 20.0169 33.9885 35.7686
H 19.667 35.355 34.7539
H 18.0348 34.2872 37.1505
H 19.3427 37.6772 35.1519
H 20.7625 38.3377 36.0662
C 12.6762 43.8889 36.3003
C 13.8996 43.3937 35.8949
C 13.8574 43.7656 38.0021
C 11.5879 44.1037 35.4946
C 12.8203 43.3006 33.9684
N 10.4729 44.6757 35.9585
N 11.7298 43.8335 34.2755
N 13.9236 43.038 34.5598
N 12.5877 44.0687 37.6737
N 14.7895 43.3001 36.9977
H 14.2125 43.8158 39.0259
H 12.7871 43.0624 32.9279
H 9.62811 44.5388 35.3313
H 10.4649 44.8874 36.9714
C 18.2048 44.0353 36.8719
C 18.1566 42.8559 35.8955
C 16.694 42.5801 35.6492
C 16.2036 42.8077 37.0787
O 17.0051 43.8553 37.6649
C 18.2864 45.3087 36.0499
O 19.5623 45.54 35.492
P 19.8116 46.6021 34.2601
O 19.0678 46.1056 32.9794
S 21.8167 46.7691 33.9293
O 19.2664 48.0303 34.7243
H 19.1142 43.9608 37.5013
H 18.7644 43.1087 35.0213
H 16.3996 41.5982 35.3782
H 16.3808 43.3529 34.8842
H 16.3095 41.8954 37.7019
H 17.963 46.1011 36.6947
H 17.5082 45.1941 35.275
C 13.9767 49.2296 31.3331
C 14.8123 49.9331 32.1885
C 14.4749 47.9968 32.9693
C 13.4358 49.8049 30.2107
C 14.5603 51.6171 30.751
N 12.7288 49.0202 29.4109
N 13.7527 51.0161 29.9375
N 15.0607 51.2797 31.8607
N 13.6392 47.9599 31.8299
N 15.2178 49.1672 33.2354
H 14.6206 47.0226 33.4714
H 14.7424 52.6858 30.5765
H 12.3617 49.3027 28.4722
H 12.5129 48.1153 29.882
C 18.1059 50.0787 34.2464
C 18.1312 48.553 34.1257
C 16.8276 48.1758 34.669
C 15.9336 49.4028 34.5063
O 16.7992 50.5005 34.3774
C 18.74 50.7554 32.9457
O 20.0285 50.1489 32.6231
P 20.7386 50.3491 31.1594
O 21.6009 48.9849 30.8104
S 21.9412 52.1004 31.1205
O 19.6135 50.4446 30.0166
H 18.7697 50.329 35.1191
H 18.0865 48.2395 33.0915
H 16.864 47.9206 35.6717
H 16.4024 47.359 34.1168
H 15.143 49.5582 35.3163
H 18.7586 51.8956 33.124
H 18.1739 50.5648 32.05
C 15.0641 53.1287 26.016
C 15.8469 53.1763 27.2318
C 16.8168 51.9611 25.8478
C 14.0089 53.8137 25.8411
C 14.2869 54.5472 27.8501
N 13.2751 53.6589 24.7235
N 13.6318 54.5894 26.7735
N 15.2773 53.914 28.2433
N 15.7373 52.386 25.1264
N 16.9171 52.325 27.1427
H 17.5634 51.4646 25.1925
H 13.9027 55.0995 28.6902
H 12.5746 54.4061 24.5201
H 13.4577 52.8819 24.0823
C 19.9597 52.5297 28.9286
C 19.9741 51.0119 28.7512
C 18.8375 50.8798 27.7137
C 17.8693 51.9053 28.2298
O 18.6264 52.9904 28.7505
C 20.8201 53.2463 27.9075
O 22.2425 53.004 28.1677
P 23.3316 53.9743 27.5213
O 23.4204 53.7356 25.9814
S 25.1375 53.6175 28.3381
O 22.9657 55.5326 27.7548
H 20.2908 52.7452 29.913
H 20.9344 50.496 28.4168
H 18.2894 49.872 27.5973
H 19.1956 51.2295 26.7407
H 17.2724 51.4652 28.9649
H 20.6742 54.3466 27.97
H 20.5053 52.9835 26.8718
C 22.5301 59.1782 22.0171
C 21.8704 58.3684 22.9439
C 23.4404 59.3795 23.8727
C 22.0395 59.3218 20.7869
C 20.465 57.9502 21.2035
N 22.6524 60.1438 19.96
N 21.0877 58.6291 20.3369
N 20.724 57.6528 22.422
N 23.5301 59.9231 22.5988
N 22.4693 58.4789 24.2206
H 24.2931 59.5137 24.5257
H 19.5352 57.4457 20.8512
H 22.2231 60.217 19.0058
H 23.6062 60.4511 20.2351
C 23.2233 57.9049 27.5316
C 23.6851 56.5396 27.0148
C 23.3553 56.5543 25.5307
C 22.2513 57.6148 25.444
O 22.3433 58.4756 26.4978
C 24.435 58.8178 27.64
O 25.2019 58.6186 26.4535
P 26.8832 58.5231 26.4765
O 27.4547 57.6646 25.25
S 27.5347 57.5373 28.1278
O 27.5809 60.0149 26.4149
H 22.6754 57.8181 28.4406
H 24.75 56.4358 27.2939
H 23.0565 55.6216 25.0236
H 24.1911 56.9399 24.9018
H 21.1607 57.2727 25.5179
H 25.0442 58.4813 28.5008
H 24.1581 59.847 27.806
C 31.9046 64.6505 24.7125
C 31.4766 63.3686 24.4089
C 30.376 64.0646 26.0702
C 32.6518 65.3318 23.7802
C 32.8987 63.4416 22.6783
N 32.9305 66.5939 23.9956
N 33.1527 64.6856 22.8147
N 32.0338 62.7357 23.2948
N 31.1671 65.134 25.7777
N 30.4852 62.9267 25.3514
H 29.6009 64.1895 26.9188
H 33.3866 63.0024 21.8541
H 33.7332 66.8737 23.5267
H 32.4598 66.9108 24.8737
C 28.248 60.4539 24.0045
C 27.4147 60.8608 25.218
C 28.1196 62.1902 25.479
C 29.5951 61.7839 25.3367
O 29.5527 61.0506 24.0927
C 27.59 60.7949 22.6331
O 28.3598 60.2133 21.583
P 27.6421 59.6639 20.2609
O 26.9518 60.8552 19.5488
S 26.2848 58.2219 20.7948
O 28.6747 58.9048 19.2762
H 28.2942 59.3847 24.0436
H 26.3618 60.9265 24.9047
H 27.9195 62.6167 26.4802
H 27.8536 62.9221 24.6775
H 29.7753 61.0245 26.2018
H 27.3193 61.8559 22.5199
H 26.6433 60.3781 22.5894
C 31.5309 54.035 15.5825
C 30.4862 54.8938 15.8538
C 32.0884 55.2446 17.1728
C 31.4997 53.0915 14.599
C 29.6198 53.9049 14.1373
N 32.5187 52.2506 14.3939
N 30.4919 53.067 13.8723
N 29.471 54.7552 15.0374
N 32.5862 54.1694 16.4875
N 30.8391 55.7368 16.9521
H 32.6961 55.625 18.0397
H 28.9193 53.8765 13.3398
H 32.3667 51.5353 13.6141
H 33.4048 52.3466 14.8829
C 30.9661 58.2302 19.2147
C 29.5226 57.8132 19.6353
C 29.3662 56.5339 18.7876
C 30.1131 56.8954 17.5043
O 31.0854 57.9266 17.8146
C 32.0146 57.3417 19.888
O 33.2867 57.6717 19.3703
P 34.6702 56.9158 19.7918
O 34.3264 55.3812 19.7403
S 35.1749 57.4314 21.6908
O 35.8481 57.2851 18.77
H 31.1709 59.3521 19.5083
H 29.5426 57.5627 20.6843
H 28.2757 56.4041 18.6112
H 29.8034 55.6037 19.141
H 29.4093 57.3662 16.7743
H 31.8557 56.2356 19.7606
H 32.0054 57.3694 20.9742
C 32.7441 57.1028 13.103
C 34.0486 57.3737 13.4236
C 32.7989 58.0818 14.9676
C 32.3433 56.437 12.0799
C 34.4262 56.3068 11.56
N 31.109 55.9062 12.0543
N 33.1962 56.1078 11.248
N 34.9724 56.9355 12.5431
N 31.8779 57.5002 14.137
N 34.0839 58.0658 14.6038
H 32.4982 58.5508 15.9086
H 35.1693 55.8401 10.9898
H 30.7496 55.4147 11.2852
H 30.536 56.2321 12.8584
C 36.7042 57.1893 16.5362
C 35.462 57.328 17.337
C 34.8702 58.6347 16.8863
C 35.2169 58.6475 15.4135
O 36.4027 57.8519 15.32
C 37.0928 55.6612 16.2928
O 37.4433 55.0274 17.5364
P 37.5296 53.4152 17.6163
O 35.9799 52.8342 17.8321
S 38.6949 52.8812 19.2445
O 38.1349 52.7947 16.2284
H 37.4115 57.7574 17.0545
H 34.8584 56.4463 17.1662
H 35.5744 59.3166 17.4682
H 33.8586 58.6869 17.1036
H 35.5019 59.5624 14.9269
H 37.9432 55.6345 15.6126
H 36.3799 55.1188 15.6919
C 38.9978 48.8681 10.7584
C 39.1723 50.0586 11.5148
C 38.4205 48.5506 12.7304
C 39.3283 48.7162 9.46496
C 39.9717 50.7724 9.63571
N 39.1048 47.6359 8.76109
N 39.8283 49.7413 8.87418
N 39.7209 51.0867 10.8284
N 38.5085 47.8703 11.5855
N 38.7624 49.8964 12.8567
H 38.1974 47.9687 13.6446
H 40.3766 51.5288 9.04202
H 39.3678 47.6417 7.73157
H 38.9305 46.7703 9.2828
C 39.356 50.6565 16.2141
C 37.979 51.3498 16.1087
C 37.5735 51.0244 14.7204
C 38.8904 50.7552 14.019
O 39.708 50.0563 14.9975
C 39.3027 49.5116 17.2758
O 38.4693 48.4397 16.7302
P 38.7599 46.979 17.1686
O 37.8586 45.9629 16.2273
S 38.2708 46.6739 19.1904
O 40.358 46.7175 16.9502
H 40.0781 51.4521 16.5373
H 37.2032 51.131 16.8243
H 36.87 51.81 14.2571
H 37.0346 50.0224 14.6426
H 39.3005 51.6639 13.6496
H 38.9131 49.7623 18.2564
H 40.3087 49.1192 17.4416
C 42.2739 45.386 10.5876
C 42.7623 46.4322 11.4798
C 41.1596 45.2944 12.3494
C 42.88 45.1915 9.38543
C 44.1575 46.8875 9.89972
N 42.4588 44.2578 8.56975
N 43.7954 46.0178 9.02854
N 43.7275 47.2539 10.9732
N 41.3267 44.5957 11.2367
N 42.0932 46.2804 12.7301
H 40.5704 44.7711 13.1188
H 44.9513 47.5662 9.57434
H 42.8372 44.199 7.64132
H 41.5997 43.8041 8.75142
C 42.2088 45.4944 15.9828
C 40.9075 46.2557 15.6954
C 41.4261 47.4189 14.9874
C 42.498 46.8117 14.0765
O 43.0288 45.7587 14.8337
C 42.047 43.9756 16.0648
O 43.2603 43.357 16.4735
P 43.4238 42.8378 18.0409
O 42.3063 43.6144 18.9353
S 45.2882 43.3754 18.8418
O 43.1819 41.2809 18.2379
H 42.6379 45.8842 16.8798
H 40.1626 45.6374 15.1027
H 41.8398 48.1221 15.7107
H 40.5595 48.0238 14.5266
H 43.3244 47.5198 13.9486
H 41.6976 43.5019 15.1737
H 41.2658 43.6889 16.7682
C 42.5451 37.1464 13.5144
C 43.1232 38.0792 14.343
C 41.6348 36.9303 15.3311
C 42.9409 36.9709 12.281
C 44.2877 38.6051 12.5838
N 42.3675 36.0236 11.5867
N 43.7569 37.7563 11.7786
N 43.995 38.9485 13.7796
N 41.6975 36.2409 14.1486
N 42.5317 37.9997 15.5688
H 40.9807 36.5986 16.1058
H 45.1182 39.2103 12.2334
H 42.5155 35.9882 10.534
H 41.8092 35.3822 12.1897
C 41.5788 39.4302 18.6239
C 41.9966 40.7049 17.893
C 42.1107 40.193 16.4546
C 42.767 38.8305 16.7217
O 42.1328 38.3253 17.9195
C 40.0447 39.2081 18.594
O 39.6961 38.0818 19.4027
P 38.2361 37.9323 20.059
O 37.3641 39.2556 19.7776
S 38.5532 37.7259 22.1024
O 37.6261 36.5905 19.5032
H 41.9495 39.5486 19.6585
H 41.2181 41.5081 17.9288
H 42.6467 40.9417 15.7759
H 41.0917 40.0599 16.0124
H 43.8356 38.9193 16.9321
H 39.629 39.1486 17.5542
H 39.5558 40.1859 19.0658
C 37.2339 29.9515 19.1715
C 37.8518 31.2592 19.4558
C 36.3093 31.4379 17.9891
C 37.4951 28.8693 19.8334
C 38.8943 30.0516 20.9978
N 36.7705 27.6669 19.6995
N 38.3512 28.9506 20.7729
N 38.7007 31.2474 20.5653
N 36.2602 30.1423 18.1618
N 37.2526 32.2215 18.5966
H 35.6219 31.9252 17.2874
H 39.6583 29.9948 21.704
H 36.9588 26.9602 20.3858
H 35.9438 27.7222 19.0101