7396
Atoms. Timestep: 0
O 84.1899 -0.375059 103.825
C 90.2137 -0.721436 106.541
C 88.8895 -0.946926 106.554
C 89.5105 -0.595929 104.589
C 90.8222 -0.442015 107.708
C 89.0214 -1.05264 108.729
N 92.0934 0.0333521 107.685
N 90.2189 -0.684789 108.758
N 88.2136 -1.0839 107.756
N 90.7021 -0.566094 105.246
N 88.3804 -0.920975 105.279
H 89.528 -0.277638 103.589
H 88.5555 -1.27515 109.643
H 92.4385 0.28405 108.608
H 92.595 0.232416 106.761
C 86.1656 -0.459532 102.537
C 85.4027 0.313739 103.567
C 86.249 0.272519 104.776
C 86.9855 -0.997769 104.706
O 86.9887 -1.34072 103.291
C 87.168 0.334093 101.634
O 87.7197 -0.671691 100.776
P 89.1642 -1.31666 100.918
O 89.0424 -2.63015 101.747
O 90.1164 -0.40599 101.658
O 89.7436 -1.78821 99.4706
H 85.3864 -1.01 101.932
H 85.1275 1.28374 103.177
H 85.6412 0.316083 105.63
H 86.9943 1.03703 104.838
H 86.3513 -1.57948 105.408
H 88.0105 0.791298 102.203
H 86.7496 1.08206 101.005
C 90.6188 -3.03818 93.3243
C 90.1281 -2.2227 94.2741
C 91.1974 -3.686 95.2504
C 90.6441 -2.7111 92.0154
C 89.5299 -0.976694 92.5137
N 91.1676 -3.54069 91.1545
N 89.9971 -1.66661 91.6172
N 89.448 -1.12931 93.7747
N 91.3855 -4.02948 93.8844
N 90.4486 -2.65472 95.5342
H 91.6549 -4.1872 96.1145
H 88.9326 -0.167811 92.0967
H 91.0186 -3.23234 90.219
H 91.689 -4.37901 91.388
C 89.8673 -0.031543 97.8461
C 90.6614 -1.02502 98.7305
C 91.2791 -1.95056 97.7026
C 90.0834 -2.03856 96.7979
O 89.5345 -0.766825 96.7285
C 90.8369 1.12028 97.5152
O 90.3336 1.8762 96.4349
P 91.4372 2.734 95.6442
O 92.1615 1.88683 94.6082
O 92.3578 3.34379 96.656
O 90.6319 4.00477 94.8919
H 88.9933 0.333616 98.4694
H 91.4837 -0.464365 99.3596
H 91.5656 -2.94326 98.1629
H 92.1528 -1.41795 97.3038
H 89.318 -2.63015 97.3873
H 91.8315 0.706976 97.166
H 90.9006 1.84999 98.3313
C 91.7445 10.6022 94.8763
C 90.8716 9.49536 94.7151
C 92.9425 8.90525 94.5991
C 91.2408 11.8598 95.0556
C 89.2469 11.0265 94.6603
N 92.1347 12.8495 95.088
N 89.9803 12.0182 94.9432
N 89.4908 9.82932 94.3881
N 93.0692 10.239 94.7425
N 91.6696 8.34325 94.7008
H 93.7434 8.3175 94.5115
H 88.1745 11.2131 94.6707
H 91.7347 13.6802 95.4411
H 93.1023 12.6082 95.191
C 89.1847 5.91858 94.8941
C 90.2463 5.17497 95.5983
C 91.4477 6.0851 95.6207
C 91.2609 6.93016 94.3918
O 89.8453 6.96516 94.196
C 88.1263 6.50564 95.8408
O 88.6523 7.692 96.5
P 87.6518 8.84499 97.2016
O 86.2994 8.81477 96.5821
O 88.2172 10.2832 96.9693
O 87.4907 8.51245 98.7472
H 88.6622 5.25014 94.0989
H 89.8393 4.886 96.5583
H 92.4198 5.61744 95.692
H 91.5129 6.72836 96.5538
H 91.767 6.62537 93.4335
H 87.6181 5.77665 96.5621
H 87.2831 6.90294 95.2064
C 84.2182 3.71977 100.486
C 84.2398 4.96855 101.023
C 86.157 4.28709 100.765
C 83.0879 3.03035 100.26
C 82.061 4.80741 100.808
N 83.1956 1.84123 99.7966
N 81.949 3.6279 100.433
N 83.0044 5.57877 101.196
N 85.5193 3.24409 100.238
N 85.5139 5.38121 101.136
H 87.2169 4.30534 100.579
H 81.1248 5.37374 100.628
H 82.3423 1.59128 99.2733
H 84.0636 1.58632 99.5005
C 85.3252 8.14787 99.6494
C 86.5556 7.52575 99.172
C 87.1989 6.97047 100.427
C 86.0765 6.73581 101.385
O 85.0636 7.68358 101.02
C 84.1693 7.76118 98.6655
O 82.9863 8.41906 98.8696
P 82.6235 9.80823 98.254
O 83.0881 9.87294 96.7433
O 83.3603 10.9538 98.9736
O 81.0238 10.0308 98.2682
H 85.5115 9.21771 99.647
H 86.3991 6.66092 98.4592
H 87.7581 7.87224 100.882
H 87.8401 6.078 100.105
H 86.2636 6.81258 102.481
H 84.0006 6.62704 98.7837
H 84.4665 7.90834 97.5796
C 79.0765 11.0978 104.255
C 78.5211 11.407 102.963
C 80.6816 11.647 103.008
C 78.3461 10.5572 105.234
C 76.6395 10.9403 103.968
N 78.9152 10.4287 106.415
N 77.0841 10.4799 105.095
N 77.1751 11.3706 102.901
N 80.4567 11.1236 104.296
N 79.579 11.7452 102.074
H 81.7172 11.8505 102.728
H 75.5285 10.8329 103.841
H 78.4013 10.1607 107.226
H 79.8373 10.8368 106.556
C 78.7808 10.5958 99.1741
C 80.3106 10.3914 99.4248
C 80.7589 11.7736 99.8937
C 79.5642 12.2116 100.689
O 78.4573 11.642 100.018
C 77.9246 9.34111 99.2852
O 76.5715 9.66463 98.7345
P 75.9981 8.8178 97.5051
O 76.8282 8.9791 96.2464
O 74.5964 9.41575 97.1519
O 75.8788 7.32462 97.8865
H 78.7241 10.873 98.0806
H 80.36 9.57832 100.165
H 80.9027 12.3834 99.0086
H 81.72 11.8177 100.386
H 79.5484 13.2442 100.76
H 77.8342 8.97283 100.379
H 78.3651 8.54647 98.7037
C 72.5869 5.61393 92.962
C 73.6369 4.82418 93.5142
C 73.6886 6.70462 94.1843
C 71.7099 5.03261 92.1751
C 72.9673 3.22316 92.1763
N 70.5566 5.605 91.9268
N 71.8888 3.84265 91.871
N 73.8296 3.51458 93.0336
N 72.5601 6.89298 93.4502
N 74.3824 5.53264 94.3738
H 73.9836 7.62725 94.7581
H 73.1593 2.2168 91.6342
H 69.8073 4.99825 91.5
H 70.4995 6.56712 92.1917
C 75.0803 5.07088 97.2646
C 75.2864 6.57034 96.8852
C 76.2875 6.35517 95.7571
C 75.6357 5.15422 95.0124
O 75.2984 4.2613 96.1137
C 73.6548 4.7148 97.631
O 73.5705 3.91777 98.7768
P 73.569 4.62942 100.232
O 74.3052 5.95927 100.078
O 74.3245 3.75723 101.301
O 72.052 4.84408 100.762
H 75.7911 4.80468 98.0214
H 74.33 7.03597 96.6143
H 77.2122 6.21096 96.1832
H 76.2893 7.30658 95.1822
H 76.2992 4.60078 94.3495
H 73.089 4.25404 96.7942
H 73.0696 5.60214 97.802
C 69.5497 -0.414574 99.1743
C 69.2887 0.390459 100.261
C 71.3462 0.1933 99.799
C 68.6175 -1.35183 98.8588
C 67.2194 -0.284957 100.201
N 68.9407 -2.35374 98.0368
N 67.358 -1.11166 99.2267
N 68.0836 0.338956 100.904
N 70.8578 -0.595395 98.8383
N 70.4866 0.862164 100.708
H 72.4307 0.206594 99.8971
H 66.2119 -0.199242 100.588
H 68.2034 -3.04059 97.8821
H 69.9042 -2.47242 97.7564
C 70.0595 3.65829 101.843
C 71.2192 3.6276 100.869
C 71.9874 2.49093 101.535
C 70.8015 1.5703 101.946
O 69.6748 2.31357 102.129
C 68.8793 4.40936 101.199
O 67.7687 4.04137 102.059
P 66.2853 4.37573 101.539
O 65.3504 3.26882 101.968
O 66.3602 4.46187 100.003
O 65.9067 5.85091 102.078
H 70.2387 4.09094 102.813
H 70.86 3.31451 99.8259
H 72.4659 2.80016 102.551
H 72.6132 1.83955 100.956
H 71.0976 0.883411 102.795
H 68.7268 3.97025 100.165
H 68.941 5.55389 101.128
C 61.7747 6.78956 107.118
C 63.0084 7.09535 106.575
C 62.0364 5.55427 105.553
C 61.373 7.39002 108.275
C 63.1997 8.50272 108.308
N 60.1627 7.1926 108.666
N 62.0985 8.23703 108.876
N 63.7832 7.98955 107.291
N 61.1402 5.77016 106.543
N 63.2159 6.28955 105.473
H 61.9107 4.80065 104.846
H 63.8353 9.12741 108.85
H 59.8793 7.7675 109.424
H 59.5473 6.65352 108.07
C 64.5335 7.68982 102.581
C 64.5491 6.31735 102.058
C 63.7412 5.70297 103.199
C 64.2535 6.36102 104.409
O 64.4579 7.7327 103.989
C 63.3148 8.53227 102.152
O 63.7877 9.87049 101.733
P 63.6036 11.1249 102.69
O 64.446 12.2533 102.16
O 63.9722 10.8125 104.14
O 62.0037 11.6008 102.688
H 65.4532 8.16946 102.289
H 64.1987 6.23111 101.027
H 63.7441 4.59066 103.26
H 62.6625 5.89687 103.118
H 65.206 5.97016 104.715
H 62.5588 8.68556 102.974
H 62.6782 8.12355 101.321
C 55.9014 10.1858 102.605
C 57.0402 10.636 103.241
C 57.2995 10.4543 101.131
C 54.8264 9.81639 103.347
C 55.9471 10.2809 105.138
N 53.7169 9.44632 102.764
N 54.8505 9.92767 104.617
N 57.0042 10.7281 104.641
N 56.0326 10.0538 101.228
N 57.9809 10.9058 102.255
H 57.81 10.2473 100.235
H 55.972 10.1564 106.166
H 53.048 9.07459 103.411
H 53.9118 9.23727 101.744
C 60.5191 13.3909 102.108
C 61.3349 12.185 101.585
C 60.1904 11.2909 101.156
C 59.3228 11.4445 102.389
O 59.3553 12.8459 102.65
C 60.0445 14.3759 101.044
O 58.8564 15.1018 101.388
P 58.3342 16.2751 100.389
O 59.5038 17.2138 100.104
O 57.1807 17.0845 101.003
O 57.8053 15.5882 98.9604
H 61.1383 13.8963 102.864
H 62.0258 12.515 100.746
H 60.5805 10.2403 101.197
H 59.6758 11.5956 100.198
H 59.8451 11.1075 103.26
H 59.9533 13.8188 100.075
H 60.8687 15.0721 100.951
C 60.8093 16.9453 93.162
C 60.638 16.2587 94.3332
C 58.8824 16.9844 93.6411
C 62.0295 17.1778 92.6233
C 62.8926 16.0702 94.2549
N 62.1542 17.8357 91.4445
N 63.0866 16.6535 93.1174
N 61.8395 15.8058 94.9282
N 59.6879 17.4676 92.7065
N 59.337 16.2965 94.695
H 57.7758 17.0415 93.5023
H 63.7637 15.8503 94.7957
H 63.0806 17.8386 90.991
H 61.3074 18.3736 91.1487
C 56.5558 15.8581 96.9115
C 57.5143 16.4458 97.8658
C 58.7963 16.706 97.1093
C 58.642 15.8593 95.9407
O 57.2823 15.6629 95.6599
C 55.241 16.6233 96.8529
O 55.4856 17.8925 96.2691
P 54.5388 18.2233 95.019
O 54.7434 17.1615 93.9323
O 54.8233 19.6371 94.5114
O 52.9415 18.3292 95.4207
H 56.3218 14.838 97.3154
H 57.1227 17.4098 98.2505
H 59.7408 16.3797 97.6474
H 58.8006 17.7896 96.8973
H 58.9613 14.8283 96.2597
H 54.9166 16.8653 97.9277
H 54.3876 16.1399 96.3245
C 49.5237 20.6709 91.0523
C 49.3149 20.2675 92.2993
C 49.9382 18.6001 91.1688
C 49.2286 21.9077 90.6149
C 48.7237 22.4808 92.569
N 49.3668 22.2359 89.3309
N 48.8561 22.8241 91.3779
N 48.8996 21.3251 93.1371
N 49.8265 19.5523 90.2317
N 49.6798 18.9033 92.4823
H 49.9542 17.6167 90.6967
H 48.5156 23.3691 93.0961
H 49.1409 23.2085 89.2281
H 49.8557 21.644 88.5788
C 50.7991 19.2861 95.458
C 51.8526 18.7113 94.5563
C 51.1515 17.5387 93.9844
C 49.7174 18.0704 93.6792
O 49.4864 18.875 94.8771
C 50.797 20.7594 95.5822
O 49.9087 21.2168 96.591
P 49.6751 22.8026 96.9683
O 49.6783 23.636 95.7025
O 50.8457 23.1997 97.9369
O 48.319 22.9584 97.7694
H 51.0207 18.7695 96.4279
H 52.1774 19.4441 93.8292
H 51.2572 16.7298 94.6845
H 51.7111 17.1419 93.1047
H 48.9451 17.2691 93.6688
H 50.6923 21.2952 94.6008
H 51.822 21.0913 95.8822
C 47.7079 17.2426 100.96
C 47.9963 18.4733 101.467
C 47.1471 18.5693 99.5253
C 48.02 16.1301 101.613
C 48.7881 17.3829 103.187
N 47.7627 14.9875 101.08
N 48.5521 16.202 102.773
N 48.7641 18.5137 102.641
N 47.1194 17.2468 99.6679
N 47.597 19.3699 100.501
H 46.8585 19.0084 98.6777
H 49.1972 17.4115 104.162
H 48.0745 14.1642 101.601
H 47.328 14.8918 100.168
C 46.4765 22.3162 99.1789
C 47.7734 21.9226 98.4853
C 48.6006 21.3803 99.6611
C 47.5944 20.8478 100.662
O 46.3489 21.4604 100.351
C 45.1896 22.2036 98.3146
O 44.0584 22.5333 99.1334
P 42.4854 22.2357 98.689
O 41.5687 23.169 99.5124
O 42.1073 20.7795 99.0726
O 42.2252 22.5265 97.1013
H 46.5192 23.3434 99.5544
H 47.6153 21.0695 97.7764
H 49.2831 22.1651 100.223
H 49.1811 20.5261 99.3639
H 47.9361 21.0603 101.664
H 45.0165 21.168 97.8733
H 45.208 22.8743 97.4277
C 37.8708 25.0896 93.6415
C 38.7098 24.0137 93.3559
C 38.2921 24.2377 95.3822
C 37.2399 25.76 92.6694
C 38.4326 24.6724 91.2639
N 36.2885 26.5691 92.9564
N 37.6119 25.6252 91.4293
N 39.1429 23.9655 92.0346
N 37.4145 25.1818 94.8997
N 39.0397 23.4172 94.4953
H 38.1195 23.8692 96.4095
H 38.4575 24.4322 90.2127
H 35.9398 27.0787 92.1384
H 36.0699 26.6921 93.9521
C 40.0053 21.705 96.9078
C 40.9955 22.7465 96.4831
C 41.2008 22.1926 95.1611
C 39.7434 22.1057 94.7161
O 39.0554 21.4941 95.8471
C 39.2796 22.1366 98.1514
O 37.929 21.5453 98.1189
P 37.0211 21.6582 99.4618
O 36.7631 23.1048 99.7738
O 37.8849 21.1011 100.586
O 35.6634 20.8217 99.2571
H 40.5051 20.7138 97.0308
H 40.6091 23.7872 96.538
H 41.6459 21.1661 95.2032
H 41.8328 22.7905 94.4933
H 39.6325 21.4739 93.7966
H 39.3664 23.2586 98.2024
H 39.8727 21.753 99.0156
C 29.9477 17.9461 97.965
C 30.8118 18.9694 98.2247
C 31.2147 17.3071 99.5121
C 29.1082 17.9231 96.9271
C 29.8162 19.8903 96.4171
N 28.469 16.8654 96.7429
N 29.0819 18.9161 96.1534
N 30.738 20.0525 97.291
N 30.1427 16.8246 98.7995
N 31.7506 18.5567 99.1654
H 31.5049 16.7123 100.375
H 29.7685 20.6614 95.6976
H 27.7294 17.0741 96.0954
H 28.3675 16.3333 97.6442
C 34.4152 19.9489 101.268
C 34.4999 20.9371 100.11
C 33.2738 20.5822 99.2929
C 33.1471 19.0957 99.511
O 33.657 18.8362 100.833
C 33.7328 20.6609 102.453
O 33.1472 19.6033 103.187
P 31.5625 19.5833 103.535
O 31.2739 18.5446 104.635
O 30.7431 19.3267 102.267
O 31.0852 21.0018 104.171
H 35.4921 19.58 101.473
H 34.5187 22.0232 100.445
H 33.3226 20.9086 98.214
H 32.4218 21.118 99.7022
H 33.8195 18.5843 98.7806
H 32.9887 21.4361 102.094
H 34.4329 21.1873 103.11
C 34.9057 20.7606 108.546
C 34.1222 21.1474 107.472
C 33.5189 22.1789 109.117
C 35.9378 19.9473 108.429
C 35.5171 19.765 106.375
N 36.6095 19.4798 109.472
N 36.2513 19.4389 107.317
N 34.5232 20.5754 106.298
N 34.5077 21.4096 109.686
N 33.2256 22.1211 107.815
H 32.8461 22.8503 109.648
H 35.7371 19.2143 105.448
H 37.4912 19.0943 109.278
H 36.2776 19.6885 110.498
C 30.4781 21.472 106.502
C 31.5728 21.2474 105.464
C 32.3366 22.6105 105.595
C 32.1894 22.8753 107.064
O 30.9037 22.4036 107.478
C 30.0867 20.1169 107.169
O 29.0906 20.4261 108.112
P 27.9034 19.3359 108.367
O 28.3833 18.3442 109.493
O 27.5486 18.5892 107.039
O 26.6669 20.1698 108.913
H 29.5471 21.8176 106.001
H 32.185 20.3309 105.755
H 31.8922 23.2724 104.81
H 33.4902 22.5113 105.381
H 32.3396 23.9685 107.235
H 30.9783 19.644 107.633
H 29.6137 19.4281 106.371
C 21.0244 23.4281 110.208
C 21.8497 22.7395 109.264
C 22.9417 23.2904 110.956
C 19.72 23.6757 110.01
C 19.9176 22.5103 108.218
N 19.1622 24.4613 110.847
N 19.2068 23.2535 108.956
N 21.1544 22.2091 108.165
N 21.785 23.8751 111.299
N 23.1407 22.6279 109.763
H 23.8195 23.2904 111.638
H 19.339 21.9579 107.5
H 18.186 24.5428 110.676
H 19.6381 24.6786 111.712
C 25.0189 20.8043 107.234
C 25.3674 19.9011 108.45
C 24.2887 20.4317 109.474
C 24.3053 21.8909 109.217
O 24.4391 22.0497 107.775
C 23.9514 20.1616 106.398
O 23.7044 21.0522 105.253
P 22.8762 20.6752 103.948
O 21.5361 21.3481 104.102
O 22.6999 19.1406 103.725
O 23.5833 21.2344 102.603
H 25.9393 20.9416 106.652
H 25.3512 18.7365 108.402
H 24.4095 20.1146 110.533
H 23.2926 20.0222 109.286
H 25.1918 22.2701 109.701
H 23.0355 19.9014 106.887
H 24.3907 19.1972 106.157
C 19.6391 20.1174 97.7778
C 20.5831 20.2716 98.8045
C 19.8802 22.1084 98.0412
C 19.2266 18.8649 97.5218
C 20.5778 18.0986 98.9639
N 18.3064 18.7582 96.5668
N 19.6993 17.8504 98.0699
N 21.0916 19.1127 99.414
N 19.1414 21.2243 97.2624
N 20.6778 21.6418 99.0767
H 19.6955 23.2372 98.0289
H 21.0637 17.1637 99.2743
H 17.8317 17.8622 96.3586
H 17.9594 19.5426 96.0668
C 23.7547 22.1706 100.452
C 23.0019 21.1602 101.281
C 21.5694 21.6893 101.251
C 21.5754 22.4376 99.9716
O 22.9127 22.3421 99.3976
C 25.0925 21.6603 99.8233
O 25.7829 22.7327 99.2389
P 26.0874 22.5127 97.6999
O 27.1187 21.4195 97.5546
O 26.5909 23.8352 97.0564
O 24.6921 22.114 97.0353
H 23.8273 23.1177 101.067
H 23.0581 20.1635 100.871
H 21.2679 22.3217 102.072
H 20.9268 20.7846 101.191
H 21.302 23.4635 100.127
H 24.8563 20.9929 98.9443
H 25.7752 21.0655 100.478
C 25.654 22.2741 90.3526
C 25.1892 21.2003 91.0999
C 25.3689 22.9899 92.2895
C 25.7881 22.1511 89.0224
C 25.3007 20.0616 89.2244
N 26.4162 23.0773 88.337
N 25.663 21.014 88.4582
N 24.995 19.9783 90.4117
N 25.7756 23.4981 91.074
N 25.0176 21.6528 92.4548
H 25.5113 23.6051 93.1779
H 25.359 19.1149 88.693
H 26.5357 22.7963 87.3576
H 26.677 23.9576 88.7277
C 23.1026 22.1442 95.1802
C 24.5486 22.3224 95.5952
C 25.3157 21.2283 94.8499
C 24.431 20.9298 93.6559
O 23.1765 21.4664 93.8465
C 22.4268 23.6322 95.1784
O 21.0278 23.3815 94.9499
P 20.5382 23.3726 93.4124
O 21.3722 22.3487 92.6753
O 20.7882 24.724 92.7331
O 19.0378 23.0158 93.3963
H 22.6275 21.5186 95.9491
H 24.8165 23.3576 95.4447
H 25.4028 20.3458 95.4628
H 26.3083 21.617 94.5872
H 24.3484 19.8519 93.4047
H 22.858 24.1501 94.367
H 22.6175 24.1123 96.1228
C 17.0658 17.7547 90.053
C 17.9261 18.4711 90.9281
C 16.0188 19.4114 90.7364
C 17.4848 16.7111 89.4177
C 19.5337 17.1623 90.1475
N 16.6112 15.8176 88.8748
N 18.7229 16.3987 89.4687
N 19.2638 18.1658 90.9409
N 15.765 18.2427 90.1034
N 17.21 19.5221 91.3427
H 15.2443 20.1592 90.843
H 20.6068 16.9983 90.0269
H 17.033 14.994 88.4345
H 15.5939 15.9389 88.9136
C 16.8732 22.8205 92.5417
C 18.3169 22.9612 92.1944
C 18.5222 21.6036 91.4626
C 17.5802 20.6545 92.2104
O 16.405 21.4773 92.4433
C 15.956 23.5387 91.5875
O 14.7299 23.8647 92.2535
P 13.6524 24.5053 91.2721
O 12.3054 24.6982 91.9733
O 13.3625 23.5941 90.062
O 14.1233 26.009 90.7768
H 16.8023 23.1884 93.5774
H 18.6737 23.7759 91.5924
H 19.6184 21.3167 91.4106
H 18.1806 21.7732 90.4565
H 18.0087 20.2849 93.1099
H 15.6516 23.0949 90.5833
H 16.4715 24.5056 91.2237
C 15.4738 32.1131 88.5716
C 14.7266 30.9365 88.3464
C 15.4797 30.8861 90.2699
C 15.6364 33.0741 87.6665
C 14.4869 31.8028 86.3292
N 16.5643 34.0159 87.8578
N 15.1607 32.8929 86.5174
N 14.1383 30.885 87.1156
N 16.0487 32.075 89.8391
N 14.7927 30.1093 89.416
H 15.7028 30.5686 91.3126
H 13.9366 31.8038 85.3994
H 17.0595 34.0243 88.768
H 16.6805 34.7012 87.0795
C 12.6139 27.3122 89.3528
C 13.2558 27.1368 90.7625
C 13.9707 28.4383 91.0556
C 14.4788 28.6582 89.5887
O 13.552 28.1056 88.6209
C 11.2739 28.0665 89.3558
O 10.7169 28.2354 88.0726
P 10.0729 26.9287 87.2718
O 8.5526 27.0604 87.3328
O 10.4848 25.6054 87.9057
O 10.4169 26.8278 85.6654
H 12.5066 26.3457 88.7905
H 12.5713 26.8611 91.571
H 14.7829 28.2546 91.7784
H 13.3604 29.3142 91.3677
H 15.4702 28.0766 89.4899
H 11.3897 29.1023 89.8263
H 10.5381 27.5426 90.027
C 13.6263 28.9398 80.2295
C 12.4767 28.4749 80.7607
C 13.9288 28.6353 82.2818
C 13.7718 29.1471 78.8751
C 11.8102 28.2821 78.6307
N 14.9707 29.4359 78.4702
N 12.8194 28.8532 78.0691
N 11.4488 28.2219 79.8915
N 14.6625 28.9367 81.113
N 12.5938 28.3204 82.134
H 14.3814 28.8587 83.2503
H 11.147 27.8591 77.932
H 15.0323 29.4433 77.4786
H 15.7994 29.3582 79.1819
C 9.35737 27.7457 83.6237
C 10.2076 28.0837 84.8907
C 11.5142 28.6442 84.3256
C 11.7153 27.7123 83.1327
O 10.3521 27.4798 82.685
C 8.58165 28.9921 83.1711
O 7.50704 29.4 84.0315
P 6.74172 30.7398 83.7922
O 6.47645 30.9754 82.3336
O 7.7237 31.8727 84.2394
O 5.41797 30.7187 84.5907
H 8.74742 26.8501 83.7101
H 9.61984 28.7722 85.4652
H 12.3486 28.6955 85.0334
H 11.2809 29.6884 84.0141
H 12.1611 26.7662 83.4718
H 8.08284 28.7138 82.169
H 9.24268 29.8641 82.983
C 3.97141 24.5728 85.7556
C 3.29421 25.6517 86.2455
C 4.65597 26.2937 84.7507
C 3.9906 23.4562 86.545
C 2.54429 24.3589 87.839
N 4.75421 22.5166 86.1668
N 3.21128 23.3267 87.524
N 2.47948 25.5068 87.3072
N 4.86181 24.9021 84.767
N 3.76437 26.807 85.6154
H 5.20427 26.8521 83.9911
H 1.81896 24.2278 88.5849
H 4.7088 21.7906 86.8812
H 5.14938 22.6674 85.232
C 3.19543 29.8404 84.1217
C 4.60797 29.6092 84.5378
C 4.48303 29.058 85.9728
C 3.24347 28.1664 85.8237
O 2.44299 28.7084 84.7488
C 2.9212 29.7896 82.6606
O 3.05423 28.4183 82.1506
P 2.67378 28.0449 80.6292
O 3.04136 26.6136 80.3996
O 3.45785 28.8317 79.6124
O 1.11997 28.2911 80.2597
H 2.75628 30.7392 84.5826
H 5.1868 28.8948 83.9102
H 4.29957 29.8902 86.5712
H 5.34722 28.5151 86.2927
H 2.61728 28.1733 86.7928
H 3.50295 30.5472 82.0977
H 1.85536 30.1413 82.447
C -3.46793 27.0753 75.5534
C -2.25841 27.3894 76.2345
C -3.93569 27.8384 77.4445
C -3.48071 26.4114 74.4306
C -1.29777 26.6022 74.4493
N -4.55059 25.8479 73.9802
N -2.35545 26.1982 73.8998
N -1.13224 27.1704 75.583
N -4.5723 27.2899 76.3415
N -2.55387 27.9702 77.4584
H -4.54708 28.2726 78.2284
H -0.471661 26.5076 73.8356
H -4.40283 25.249 73.1716
H -5.43949 25.9989 74.2768
C 0.408876 29.6036 78.4041
C 0.715829 28.1928 78.9121
C -0.622254 27.5106 78.8371
C -1.58118 28.5305 78.4209
O -0.813879 29.4774 77.7103
C 1.50161 30.2681 77.5582
O 0.81311 31.257 76.8105
P 1.38992 31.6534 75.3842
O 2.8308 32.0615 75.4948
O 0.654043 32.8886 74.7856
O 1.17422 30.4023 74.3867
H 0.161374 30.2786 79.2928
H 1.51324 27.6409 78.319
H -0.973125 27.0368 79.7512
H -0.407825 26.6645 78.0782
H -2.13119 29.0116 79.2772
H 2.16359 29.5891 76.9793
H 2.21233 30.7765 78.2633
C 4.81415 25.327 72.1566
C 3.66727 26.0046 71.9525
C 4.7951 26.8011 73.5548
C 5.13966 24.2723 71.3785
C 3.28761 24.6209 70.2419
N 6.24422 23.637 71.504
N 4.34296 23.9281 70.4353
N 2.89323 25.6234 70.8479
N 5.59716 25.7569 73.2138
N 3.57045 26.969 72.8873
H 5.04156 27.4403 74.3855
H 2.60185 24.2181 69.4963
H 6.19442 22.7639 71.0576
H 7.00562 24.1099 72.0666
C 1.04288 29.5047 72.0823
C 1.92635 30.2559 73.1268
C 3.20904 29.3952 73.3709
C 2.51072 28.0058 73.1769
O 1.47263 28.1411 72.2146
C 1.29049 30.0289 70.6495
O 0.821077 29.0686 69.6832
P 1.31265 29.1888 68.1944
O 2.72402 28.8201 68.0718
O 1.35212 30.6926 67.8215
O 0.300634 28.32 67.2348
H -0.0453527 29.5501 72.3508
H 2.19311 31.2514 72.6147
H 3.83786 29.5777 74.3059
H 3.89495 29.6507 72.5067
H 2.00297 27.7513 74.1216
H 2.37573 30.3228 70.5098
H 0.753816 30.9917 70.539
C 1.6641 24.0189 62.23
C 0.943467 24.1343 63.4517
C 1.48503 25.967 62.7175
C 1.66725 22.8448 61.5822
C 0.77243 22.0045 63.3161
N 1.95828 22.7886 60.2971
N 1.08515 21.8588 62.127
N 0.553309 23.0055 64.0379
N 1.94682 25.2021 61.6864
N 0.810219 25.4429 63.7891
H 1.84411 27.039 62.7971
H 0.502665 21.0968 63.8521
H 1.76381 21.9024 59.8175
H 2.25757 23.6687 59.8778
C -0.680736 28.2624 65.0626
C 0.592845 28.3094 65.8277
C 1.37861 27.0069 65.4913
C 0.289078 26.0648 64.986
O -0.774441 26.8733 64.6623
C -0.480252 29.2109 63.8646
O -1.54919 29.0677 62.9103
P -1.41086 28.1094 61.6905
O -1.23215 26.637 62.0742
O -0.19054 28.5029 60.7937
O -2.78224 28.1971 60.8313
H -1.53982 28.5628 65.7021
H 1.19266 29.1708 65.5378
H 1.95169 26.5522 66.3761
H 2.06306 27.2554 64.6881
H -0.0907824 25.3143 65.7044
H 0.405906 28.9534 63.243
H -0.297673 30.2498 64.0712
C -7.84862 28.1951 56.5744
C -6.45924 27.9944 56.7145
C -7.39548 28.2459 58.5149
C -8.44041 28.1501 55.3763
C -6.54848 27.7258 54.5695
N -9.74978 28.3162 55.3534
N -7.75906 27.9681 54.3675
N -5.80112 27.83 55.5726
N -8.51212 28.3927 57.7749
N -6.10318 28.1755 58.0408
H -7.57727 28.2684 59.5783
H -5.98163 27.4862 53.711
H -10.019 28.5108 54.4126
H -10.2632 28.5019 56.2482
C -2.72745 27.4347 58.5154
C -3.12107 27.1197 59.9241
C -4.63553 27.1153 59.7831
C -4.86222 28.2472 58.8178
O -3.73546 28.2064 57.8747
C -2.63607 26.028 57.8576
O -2.62492 26.1404 56.4416
P -2.65639 24.7439 55.6179
O -2.44028 25.0267 54.1112
O -3.96375 23.9981 55.8921
O -1.47911 23.8104 56.1373
H -1.71165 27.9258 58.6082
H -2.67818 26.1498 60.1052
H -5.25396 27.2149 60.694
H -4.97785 26.2444 59.2903
H -4.77037 29.137 59.4318
H -3.34788 25.3835 58.2844
H -1.64803 25.5489 58.038
C 4.93277 22.5411 54.8721
C 3.59001 22.2112 54.9595
C 3.92112 23.9601 55.9568
C 5.83554 21.7081 54.3923
C 4.29503 20.3521 53.9313
N 7.07693 22.1792 54.1904
N 5.51147 20.6387 53.8933
N 3.31201 20.9664 54.4212
N 5.18112 23.7214 55.5125
N 2.8499 23.0764 55.66
H 3.81963 24.8751 56.4678
H 3.97137 19.4777 53.3348
H 7.77352 21.5018 53.8599
H 7.13687 23.2096 54.236
C -0.360005 21.6738 55.6275
C -0.754741 23.0477 55.158
C 0.566981 23.7055 54.957
C 1.41584 23.0766 56.1086
O 0.878606 21.7758 56.3929
C 0.00668437 20.9793 54.3338
O -1.15368 20.8649 53.3917
P -0.983317 19.9067 52.1432
O -2.29311 19.8382 51.3132
O -0.618391 18.5217 52.6743
O 0.17122 20.4546 51.2321
H -1.13914 21.0509 56.1378
H -1.25697 22.9359 54.2013
H 0.57754 24.7841 55.0028
H 0.889908 23.4395 53.9663
H 1.32961 23.7012 57.0164
H 0.29823 19.942 54.6575
H 0.897339 21.4063 53.8329
C 2.61215 22.7666 45.3129
C 2.88497 22.3951 46.625
C 0.82687 22.5342 46.3145
C 3.60129 23.1241 44.4738
C 4.91246 22.6136 46.0954
N 3.35369 23.7171 43.3048
N 4.75255 23.0079 44.8758
N 4.15297 22.2301 46.9871
N 1.27071 22.975 45.0822
N 1.71578 22.1264 47.2776
H -0.184809 22.4846 46.524
H 5.95966 22.7004 46.4147
H 4.18766 23.9739 42.7877
H 2.40971 23.7479 42.8929
C 2.09314 19.8331 49.8365
C 0.548587 19.9743 49.9646
C 0.18994 20.8794 48.8305
C 1.45046 21.7707 48.6758
O 2.58418 21.0237 49.1693
C 2.39733 18.6082 48.9486
O 2.15414 17.3861 49.6573
P 3.00841 16.0254 49.2309
O 2.31372 14.7671 49.667
O 4.39282 16.0473 49.9733
O 3.40127 16.018 47.6959
H 2.62711 19.7489 50.8034
H 0.0903087 18.9552 49.7913
H -0.752093 21.3258 49.0467
H 0.107178 20.3129 47.8389
H 1.3537 22.6434 49.3343
H 3.42332 18.5991 48.6227
H 1.89687 18.6132 47.9741
C -0.334382 16.809 42.5215
C 0.541535 17.0112 43.5796
C 0.962176 15.25 42.6259
C -1.32879 17.6528 42.2356
C -0.525836 18.9137 43.7619
N -1.98937 17.6761 41.0697
N -1.38207 18.7248 42.9037
N 0.432532 18.212 44.1766
N -0.131737 15.7027 41.8705
N 1.42834 15.9602 43.668
H 1.45945 14.3272 42.341
H -0.602883 19.884 44.2772
H -2.5502 18.5 40.8109
H -1.8032 16.8746 40.4776
C 2.29889 14.3725 46.1491
C 2.36866 15.8234 46.7031
C 2.87762 16.6935 45.5414
C 2.72715 15.8278 44.3684
O 2.87529 14.4799 44.797
C 0.809686 14.0341 46.0871
O 0.619309 12.7149 45.6366
P -0.827551 12.0893 45.3661
O -1.54057 12.8633 44.2349
O -1.65135 12.1955 46.6207
O -0.59579 10.5685 44.9618
H 2.81078 13.6343 46.7322
H 1.46538 16.308 47.1535
H 3.91483 17.0118 45.761
H 2.33461 17.6659 45.5532
H 3.52889 16.0054 43.6389
H 0.216792 14.7573 45.4477
H 0.395942 14.2403 47.0478
C -0.36426 6.53589 50.2485
C -0.633726 6.11335 48.9804
C -0.401771 8.22038 49.0906
C -0.393991 5.60833 51.2642
C -0.830737 4.06907 49.7693
N -0.315806 6.03827 52.498
N -0.656969 4.41042 50.9981
N -0.8892 4.83512 48.7545
N -0.208969 7.86428 50.4309
N -0.69098 7.24119 48.1646
H -0.411721 9.28961 48.7547
H -0.786191 3.01785 49.4554
H -0.533679 5.35021 53.2471
H 0.212069 6.92633 52.6037
C 0.512363 8.42691 45.1978
C -0.203123 9.54703 45.9717
C -1.3525 8.85119 46.4893
C -0.860235 7.4228 46.789
O 0.390568 7.31874 46.0438
C 1.99818 8.82139 45.0073
O 2.23115 10.0891 44.3742
P 3.56303 10.1285 43.5036
O 3.76472 8.77896 42.8281
O 4.74706 10.6097 44.3955
O 3.27039 11.2304 42.3542
H 0.090583 8.13539 44.1818
H 0.464665 10.0192 46.722
H -2.10112 8.86122 45.7087
H -1.89382 9.36675 47.3025
H -1.57869 6.68325 46.3445
H 2.68173 8.06907 44.6163
H 2.35628 9.06618 46.0325
C 2.00207 11.9114 36.0567
C 1.77959 11.6308 37.4219
C 3.43093 12.9463 37.0811
C 1.04552 11.4508 35.2218
C 0.157596 10.3449 36.841
N 1.0433 11.9899 34.0492
N 0.129147 10.6837 35.5891
N 0.799332 10.7396 37.8207
N 3.09915 12.7126 35.7411
N 2.7087 12.3333 38.1541
H 4.30199 13.583 37.291
H -0.611576 9.5786 37.0892
H 0.279009 11.6652 33.4692
H 1.80334 12.6448 33.7878
C 4.72115 12.6656 41.1013
C 4.19333 11.284 41.2962
C 3.28951 11.0648 40.1224
C 2.91149 12.3729 39.5877
O 3.97705 13.1911 39.9699
C 6.17068 12.5858 40.7192
O 6.2244 11.8237 39.4955
P 7.59913 11.3954 38.8634
O 7.39984 11.0316 37.3815
O 8.0952 10.173 39.6106
O 8.70717 12.6076 38.9634
H 4.63869 13.1896 42.034
H 4.98214 10.5929 41.4231
H 2.43461 10.3271 40.3669
H 3.88311 10.6072 39.3525
H 2.03283 12.7741 40.1887
H 6.72067 12.1203 41.5861
H 6.65264 13.5822 40.6029
C 5.84187 18.2979 38.2678
C 6.1462 17.1255 38.8979
C 7.71836 17.7844 37.7205
C 4.74011 18.9848 38.6194
C 4.23523 17.2831 39.9113
N 4.58315 20.1718 38.1725
N 3.94795 18.4839 39.5331
N 5.16757 16.5396 39.6469
N 6.81526 18.8169 37.4818
N 7.43033 16.739 38.5677
H 8.64067 17.8253 37.1961
H 3.5603 16.8763 40.7425
H 3.7207 20.6077 38.3115
H 5.31384 20.5844 37.6297
C 10.1496 14.4402 38.2615
C 8.9062 13.5659 37.9331
C 7.75697 14.55 37.807
C 8.14274 15.53 38.8684
O 9.62686 15.5873 38.8761
C 10.8246 14.8171 36.9355
O 11.9349 15.698 37.1084
P 12.8136 16.0043 35.7607
O 11.9713 16.7251 34.7653
O 13.3529 14.725 35.1874
O 14.0472 16.9366 36.1455
H 10.8105 13.8847 38.8405
H 9.05826 12.9682 37.0124
H 6.72566 14.1029 37.83
H 7.86261 15.0007 36.7612
H 7.78484 15.2003 39.8749
H 10.078 15.1222 36.2184
H 11.1323 13.875 36.3296
C 18.2866 21.8603 37.3372
C 18.0461 20.5037 37.24
C 16.577 21.5921 36.2117
C 19.3899 22.2664 37.9404
C 19.9452 20.1776 38.2288
N 19.6094 23.5322 38.1636
N 20.206 21.394 38.3821
N 18.9478 19.6233 37.7349
N 17.4203 22.5888 36.6419
N 16.8107 20.3446 36.5713
H 15.7952 21.7714 35.5676
H 20.6201 19.567 38.6727
H 20.4405 23.7133 38.7349
H 18.876 24.2175 38.0332
C 14.4537 18.7074 34.4999
C 13.8155 18.287 35.8677
C 14.654 19.1609 36.7396
C 16.0222 19.2 36.1364
O 15.7955 19.1098 34.7383
C 13.6246 19.8252 33.7408
O 14.1452 20.2009 32.4608
P 13.3915 21.2142 31.4641
O 12.8193 22.2228 32.4234
O 12.3222 20.391 30.6307
O 14.3564 21.9916 30.4177
H 14.5104 17.8752 33.7103
H 12.7213 18.4978 35.8456
H 14.7054 18.8264 37.7804
H 14.2795 20.2185 36.69
H 16.4898 18.3126 36.4552
H 13.5358 20.7561 34.4176
H 12.604 19.3143 33.494
C 10.6861 22.9012 25.3431
C 10.6762 23.492 26.5693
C 12.6286 23.2158 25.9716
C 9.51411 22.5832 24.7
C 8.4816 23.4125 26.4128
N 9.5428 22.0752 23.487
N 8.43783 22.8958 25.25
N 9.47366 23.7166 27.14
N 11.9765 22.7156 24.9283
N 11.9215 23.7415 27.0174
H 13.7437 23.4249 25.974
H 7.52836 23.3434 26.8682
H 8.60197 22.0011 23.0613
H 10.4818 21.9455 23.0212
C 14.5396 23.99 29.0853
C 13.8246 22.7175 29.3155
C 12.4294 23.2058 29.3812
C 12.4603 24.3129 28.3435
O 13.8401 24.7177 28.1919
C 16.0106 23.8626 28.7669
O 16.5467 25.1396 28.5059
P 17.8886 25.3195 27.7103
O 18.9575 24.386 28.2152
O 18.2603 26.7816 27.8081
O 17.5605 24.9908 26.1516
H 14.4633 24.5418 29.9896
H 13.8642 22.1347 28.3984
H 12.169 23.6128 30.3497
H 11.5907 22.5409 29.1408
H 11.8452 25.1574 28.7228
H 16.2851 23.2586 27.9106
H 16.5548 23.4229 29.5796
C 23.3776 24.2842 22.8016
C 22.3185 23.417 22.8125
C 21.9319 25.1596 23.9829
C 24.5754 23.917 22.2222
C 23.5685 22.0683 21.7427
N 25.6755 24.5388 22.4263
N 24.6298 22.7634 21.6947
N 22.4121 22.2209 22.1747
N 23.2392 25.3866 23.5984
N 21.2662 24.0454 23.4794
H 21.4015 25.9299 24.4987
H 23.7676 20.9963 21.4115
H 26.5372 24.0205 22.1415
H 25.5413 25.3445 23.0595
C 18.0218 25.196 23.8238
C 18.6474 24.995 25.2313
C 19.3141 23.6667 24.9608
C 19.8068 23.7857 23.4884
O 19.1239 24.9185 22.8884
C 17.4733 26.6122 23.7438
O 17.1145 26.947 22.4229
P 17.2006 28.4764 21.9211
O 18.6254 28.865 21.6067
O 16.6003 29.4558 22.9045
O 16.3219 28.6288 20.565
H 17.1941 24.491 23.499
H 19.3764 25.7661 25.5604
H 18.5373 22.8748 24.9854
H 20.0189 23.2786 25.7432
H 19.5402 22.7987 22.9217
H 18.2029 27.3369 24.1809
H 16.6154 26.7633 24.3674
C 18.6414 23.9062 16.4738
C 17.3431 24.1935 16.7292
C 18.6258 25.4933 17.761
C 18.8988 22.8944 15.5855
C 16.7955 22.4268 15.54
N 20.1438 22.6966 15.2064
N 17.9847 22.1675 15.0819
N 16.3744 23.4167 16.1482
N 19.528 24.6955 17.0782
N 17.2895 25.2056 17.6739
H 18.9773 26.2715 18.3795
H 16.0449 21.7165 15.2612
H 20.3943 22.0832 14.4249
H 20.8099 23.2818 15.644
C 15.4043 27.9665 18.4168
C 16.5577 27.9072 19.3638
C 16.5477 26.4089 19.6808
C 16.1107 25.744 18.4075
O 15.4713 26.7768 17.6692
C 15.6203 29.1783 17.5458
O 14.6662 29.1267 16.5887
P 14.1078 30.5389 15.9601
O 12.935 30.9986 16.7646
O 13.8254 30.2807 14.4402
O 15.257 31.6674 16.1279
H 14.472 28.1223 19.0296
H 17.5406 28.0954 18.8698
H 15.8767 26.2359 20.5375
H 17.501 26.1365 20.0562
H 15.4194 24.996 18.6811
H 16.6099 29.1219 17.09
H 15.4295 30.1711 18.1106
C 18.9529 36.8631 17.3295
C 18.5636 35.8799 16.4459
C 17.5025 35.6532 18.2713